Program Version,EnergyPlus, Version 8.9.0-40101eaafd, YMD=2020.10.20 14:25
1,5,Environment Title[],Latitude[deg],Longitude[deg],Time Zone[],Elevation[m]
2,8,Day of Simulation[],Month[],Day of Month[],DST Indicator[1=yes 0=no],Hour[],StartMinute[],EndMinute[],DayType
3,5,Cumulative Day of Simulation[],Month[],Day of Month[],DST Indicator[1=yes 0=no],DayType  ! When Daily Report Variables Requested
4,2,Cumulative Days of Simulation[],Month[]  ! When Monthly Report Variables Requested
5,1,Cumulative Days of Simulation[] ! When Run Period Report Variables Requested
6,1,Calendar Year of Simulation[] ! When Annual Report Variables Requested
7,1,Environment,Site Outdoor Air Drybulb Temperature [C] !Hourly
8,1,Environment,Site Outdoor Air Dewpoint Temperature [C] !Hourly
9,1,Environment,Site Outdoor Air Barometric Pressure [Pa] !Hourly
10,1,Environment,Site Wind Speed [m/s] !Hourly
11,1,Environment,Site Wind Direction [deg] !Hourly
12,1,Environment,Site Diffuse Solar Radiation Rate per Area [W/m2] !Hourly
13,1,Environment,Site Direct Solar Radiation Rate per Area [W/m2] !Hourly
14,1,Environment,Site Solar Azimuth Angle [deg] !Hourly
15,1,Environment,Site Solar Altitude Angle [deg] !Hourly
126,1,BLOCK1:ZONE1,Zone Mean Radiant Temperature [C] !Hourly,ON
127,1,BLOCK1:ZONE1,Zone Mean Air Temperature [C] !Hourly,ON
128,1,BLOCK1:ZONE1,Zone Operative Temperature [C] !Hourly,ON
129,1,BLOCK1:ZONE1,Zone Infiltration Air Change Rate [ach] !Hourly
216,1,BLOCK1:ZONE1,Zone Air System Sensible Heating Rate [W] !Hourly
217,1,BLOCK1:ZONE1,Zone Air System Sensible Cooling Rate [W] !Hourly
218,1,BLOCK1:ZONE1,Zone Air Relative Humidity [%] !Hourly,ON
317,1,DHW BLOCK1:ZONE1,Water Use Equipment Heating Rate [W] !Hourly
478,1,Whole Building,Facility Total Produced Electric Energy [J] !Hourly
541,1,BLOCK1:ZONE1 IDEAL LOADS AIR,Zone Ideal Loads Supply Air Total Heating Rate [W] !Hourly
542,1,BLOCK1:ZONE1 IDEAL LOADS AIR,Zone Ideal Loads Supply Air Sensible Cooling Rate [W] !Hourly
543,1,BLOCK1:ZONE1 IDEAL LOADS AIR,Zone Ideal Loads Supply Air Total Cooling Rate [W] !Hourly
544,1,BLOCK1:ZONE1 IDEAL LOADS AIR,Zone Ideal Loads Heat Recovery Sensible Heating Rate [W] !Hourly
545,1,BLOCK1:ZONE1 IDEAL LOADS AIR,Zone Ideal Loads Heat Recovery Total Heating Rate [W] !Hourly
546,1,BLOCK1:ZONE1 IDEAL LOADS AIR,Zone Ideal Loads Heat Recovery Sensible Cooling Rate [W] !Hourly
547,1,BLOCK1:ZONE1 IDEAL LOADS AIR,Zone Ideal Loads Heat Recovery Total Cooling Rate [W] !Hourly
18,1,Electricity:Facility [J] !Hourly
91,1,InteriorEquipment:Electricity [J] !Hourly
54,1,InteriorLights:Electricity [J] !Hourly
506,1,DistrictCooling:Facility [J] !Hourly
320,1,DistrictHeating:Facility [J] !Hourly
550,1,Carbon Equivalent:Facility [kg] !Hourly
575,1,BLOCK1:ZONE1,Zone Mechanical Ventilation Air Changes per Hour [ach] !Hourly
End of Data Dictionary
1,UNTITLED (29-O6:O5-O7),  51.15,  -0.18,   0.00,  62.00
2,1, 6,29, 1, 1, 0.00,60.00,Saturday
7,17.200000000000004
8,10.525
9,101225.0
10,2.475
11,47.5
12,0.0
13,0.0
14,9.786677932518203
15,-14.950510407299735
126,27.75383854435666
127,26.4216714693881
128,27.087755006872379
129,0.7222846135565353
216,0.0
217,0.0
218,35.88533040917177
317,0.0
478,0.0
541,0.0
542,0.0
543,0.0
544,0.0
545,0.0
546,0.0
547,0.0
575,0.0
18,202595.797275696
54,0.0
91,202595.797275696
320,0.0
506,0.0
550,0.0
2,1, 6,29, 1, 2, 0.00,60.00,Saturday
7,17.2
8,11.225
9,101225.0
10,2.975
11,40.0
12,0.0
13,0.0
14,23.67406450547796
15,-12.245555999668806
126,27.570192339741995
127,26.318559808550476
128,26.944376074146235
129,0.7220560892941579
216,0.0
217,0.0
218,37.095139354193069
317,0.0
478,0.0
541,0.0
542,0.0
543,0.0
544,0.0
545,0.0
546,0.0
547,0.0
575,0.0
18,202595.797275696
54,0.0
91,202595.797275696
320,0.0
506,0.0
550,0.0
2,1, 6,29, 1, 3, 0.00,60.00,Saturday
7,15.725
8,12.024999999999999
9,101200.0
10,2.35
11,17.5
12,0.0
13,0.0
14,36.80283143731393
15,-7.5148328208845849
126,27.368674894242309
127,25.95922418520456
128,26.663949539723434
129,0.7248977248479324
216,0.0
217,0.0
218,39.48641496639732
317,0.0
478,0.0
541,0.0
542,0.0
543,0.0
544,0.0
545,0.0
546,0.0
547,0.0
575,0.0
18,202595.797275696
54,0.0
91,202595.797275696
320,0.0
506,0.0
550,0.0
2,1, 6,29, 1, 4, 0.00,60.00,Saturday
7,14.85
8,11.9
9,101200.0
10,1.65
11,10.0
12,5.25
13,0.0
14,49.04063334907295
15,-1.119686911673009
126,27.141173415372877
127,25.653831507414357
128,26.397502461393615
129,0.7262948084637558
216,0.0
217,0.0
218,41.554722555715368
317,0.0
478,0.0
541,0.0
542,0.0
543,0.0
544,0.0
545,0.0
546,0.0
547,0.0
575,0.0
18,202595.797275696
54,0.0
91,202595.797275696
320,0.0
506,0.0
550,0.0
2,1, 6,29, 1, 5, 0.00,60.00,Saturday
7,14.55
8,11.425
9,101200.0
10,1.5
11,10.0
12,37.0
13,38.0
14,60.50419938362333
15,6.549177729454248
126,26.950946604935266
127,25.451684677489589
128,26.201315641212426
129,0.7265059114481209
216,0.0
217,0.0
218,42.1406606435782
317,0.0
478,0.0
541,0.0
542,0.0
543,0.0
544,0.0
545,0.0
546,0.0
547,0.0
575,0.0
18,202595.797275696
54,0.0
91,202595.797275696
320,0.0
506,0.0
550,0.0
2,1, 6,29, 1, 6, 0.00,60.00,Saturday
7,15.700000000000001
8,10.175
9,101200.0
10,1.9500000000000002
11,10.0
12,96.0
13,208.75
14,71.4951649907287
15,15.123460237638915
126,26.879583806893327
127,25.479616924427103
128,26.179600365660215
129,0.7236090166151583
216,0.0
217,0.0
218,40.87466528268659
317,0.0
478,0.0
541,0.0
542,0.0
543,0.0
544,0.0
545,0.0
546,0.0
547,0.0
575,0.0
18,202595.797275696
54,0.0
91,202595.797275696
320,0.0
506,0.0
550,0.0
2,1, 6,29, 1, 7, 0.00,60.00,Saturday
7,17.525
8,8.899999999999999
9,101200.0
10,3.225
11,40.0
12,133.0
13,425.75
14,82.46339324051945
15,24.265592350277854
126,26.96099404320921
127,25.729594442232867
128,26.34529424272104
129,0.7196402984937895
216,0.0
217,0.0
218,37.96887563255284
317,0.0
478,0.0
541,0.0
542,0.0
543,0.0
544,0.0
545,0.0
546,0.0
547,0.0
575,0.0
18,202595.797275696
54,0.0
91,202595.797275696
320,0.0
506,0.0
550,0.0
2,1, 6,29, 1, 8, 0.00,60.00,Saturday
7,19.799999999999998
8,8.825
9,101200.0
10,2.85
11,50.0
12,149.5
13,593.25
14,94.03785433926694
15,33.642151193872937
126,27.20741357060455
127,26.142613590569348
128,26.67501358058695
129,0.7151097173280758
216,0.0
217,0.0
218,35.1594167039599
317,0.0
478,0.0
541,0.0
542,0.0
543,0.0
544,0.0
545,0.0
546,0.0
547,0.0
575,0.0
18,202595.797275696
54,0.0
91,202595.797275696
320,0.0
506,0.0
550,0.0
2,1, 6,29, 1, 9, 0.00,60.00,Saturday
7,21.75
8,7.025
9,101200.0
10,4.475
11,50.0
12,161.25
13,697.5
14,107.14624102440348
15,42.861259999761809
126,27.71567820672163
127,26.740300065550529
128,27.22798913613608
129,0.7120092791398769
216,0.0
217,0.0
218,32.6445899413675
317,0.0
478,0.0
541,0.0
542,0.0
543,0.0
544,0.0
545,0.0
546,0.0
547,0.0
575,0.0
18,202595.797275696
54,0.0
91,202595.797275696
320,0.0
506,0.0
550,0.0
2,1, 6,29, 1,10, 0.00,60.00,Saturday
7,23.325
8,6.925
9,101200.0
10,5.925000000000001
11,57.5
12,156.25
13,777.5
14,123.21660107650816
15,51.35010402693026
126,28.42676217903528
127,27.589601455944896
128,28.008181817490088
129,0.7102718040628487
216,0.0
217,0.0
218,28.82662410258086
317,0.0
478,0.0
541,0.0
542,0.0
543,0.0
544,0.0
545,0.0
546,0.0
547,0.0
575,0.0
18,202595.797275696
54,0.0
91,202595.797275696
320,0.0
506,0.0
550,0.0
2,1, 6,29, 1,11, 0.00,60.00,Saturday
7,24.599999999999999
8,4.1
9,101200.0
10,6.2
11,52.5
12,153.5
13,824.75
14,144.17600730945325
15,58.14179220256027
126,29.216209425875769
127,28.53657999947314
128,28.876394712674455
129,0.7093369783110644
216,0.0
217,0.0
218,25.312931865703228
317,0.0
478,0.0
541,0.0
542,0.0
543,0.0
544,0.0
545,0.0
546,0.0
547,0.0
575,0.0
18,202595.797275696
54,0.0
91,202595.797275696
320,0.0
506,0.0
550,0.0
2,1, 6,29, 1,12, 0.00,60.00,Saturday
7,25.35
8,1.825
9,101200.0
10,6.2
11,65.0
12,145.25
13,849.75
14,170.90047259780756
15,61.7427847729398
126,29.941104722401137
127,29.333831651407423
128,29.637468186904284
129,0.7094014160695601
216,0.0
217,0.0
218,21.128104152902183
317,0.0
478,0.0
541,0.0
542,0.0
543,0.0
544,0.0
545,0.0
546,0.0
547,0.0
575,0.0
18,202595.797275696
54,0.0
91,202595.797275696
320,0.0
506,0.0
550,0.0
2,1, 6,29, 1,13, 0.00,60.00,Saturday
7,26.1
8,2.975
9,101200.0
10,5.375
11,62.5
12,154.75
13,826.0
14,199.67152346039263
15,60.873103422641438
126,30.51096953590309
127,29.94109170398439
128,30.226030619943744
129,0.709061900821313
216,0.0
217,0.0
218,18.701199204437417
317,0.0
478,0.0
541,0.0
542,0.0
543,0.0
544,0.0
545,0.0
546,0.0
547,0.0
575,0.0
18,202595.797275696
54,0.0
91,202595.797275696
320,0.0
506,0.0
550,0.0
2,1, 6,29, 1,14, 0.00,60.00,Saturday
7,26.375
8,2.0
9,101125.0
10,5.550000000000001
11,60.0
12,159.0
13,787.75
14,224.3603205520723
15,55.883239089806128
126,30.83214849916778
127,30.278018699283537
128,30.555083599225659
129,0.7090688946296648
216,0.0
217,0.0
218,17.7869202781285
317,0.0
478,0.0
541,0.0
542,0.0
543,0.0
544,0.0
545,0.0
546,0.0
547,0.0
575,0.0
18,202595.797275696
54,0.0
91,202595.797275696
320,0.0
506,0.0
550,0.0
2,1, 6,29, 1,15, 0.00,60.00,Saturday
7,26.4
8,1.2000000000000002
9,101100.0
10,5.7
11,67.5
12,141.0
13,766.75
14,243.2628924821708
15,48.30762775942701
126,30.874858884551775
127,30.305649244058963
128,30.59025406430537
129,0.7090647743875593
216,0.0
217,0.0
218,16.795983986728286
317,0.0
478,0.0
541,0.0
542,0.0
543,0.0
544,0.0
545,0.0
546,0.0
547,0.0
575,0.0
18,202595.797275696
54,0.0
91,202595.797275696
320,0.0
506,0.0
550,0.0
2,1, 6,29, 1,16, 0.00,60.00,Saturday
7,26.4
8,1.325
9,101100.0
10,4.875
11,70.0
12,124.0
13,719.75
14,258.0177010153467
15,39.45895578154692
126,30.68767728991991
127,30.122094167744799
128,30.404885728832356
129,0.708685852792164
216,0.0
217,0.0
218,16.268436742007716
317,0.0
478,0.0
541,0.0
542,0.0
543,0.0
544,0.0
545,0.0
546,0.0
547,0.0
575,0.0
18,202595.797275696
54,0.0
91,202595.797275696
320,0.0
506,0.0
550,0.0
2,1, 6,29, 1,17, 0.00,60.00,Saturday
7,26.175
8,2.675
9,101100.0
10,4.975
11,62.5
12,127.0
13,574.5
14,270.4162849640687
15,30.127174692631038
126,30.436701410265337
127,29.831796977634526
128,30.13424919394993
129,0.708608334829244
216,0.0
217,0.0
218,16.799862912374544
317,0.0
478,0.0
541,0.0
542,0.0
543,0.0
544,0.0
545,0.0
546,0.0
547,0.0
575,0.0
18,202595.797275696
54,0.0
91,202595.797275696
320,0.0
506,0.0
550,0.0
2,1, 6,29, 1,18, 0.00,60.00,Saturday
7,25.725
8,4.075
9,101025.0
10,5.1
11,75.0
12,119.5
13,355.25
14,281.67494335458027
15,20.797496632964888
126,30.204602299573339
127,29.54141980693845
128,29.873011053255895
129,0.7090090694178829
216,0.0
217,0.0
218,18.08517802148551
317,0.0
478,0.0
541,0.0
542,0.0
543,0.0
544,0.0
545,0.0
546,0.0
547,0.0
575,0.0
18,202595.797275696
54,0.0
91,202595.797275696
320,0.0
506,0.0
550,0.0
2,1, 6,29, 1,19, 0.00,60.00,Saturday
7,24.4
8,5.9
9,101000.0
10,3.2249999999999998
11,87.5
12,79.75
13,120.75
14,292.5892381984128
15,11.829610742014147
126,29.915890747340386
127,29.142470838864086
128,29.529180793102236
129,0.7112833372617217
216,0.0
217,0.0
218,20.033630436577398
317,0.0
478,0.0
541,0.0
542,0.0
543,0.0
544,0.0
545,0.0
546,0.0
547,0.0
575,0.0
18,202595.797275696
54,0.0
91,202595.797275696
320,0.0
506,0.0
550,0.0
2,1, 6,29, 1,20, 0.00,60.00,Saturday
7,22.65
8,7.825000000000001
9,101000.0
10,2.975
11,82.5
12,21.25
13,0.0
14,303.71225664228788
15,3.55333988200719
126,29.566486360240533
127,28.62461346773717
128,29.09554991398885
129,0.7143123816032639
216,0.0
217,0.0
218,23.127281770621005
317,0.0
478,0.0
541,0.0
542,0.0
543,0.0
544,0.0
545,0.0
546,0.0
547,0.0
575,0.0
18,202595.797275696
54,0.0
91,202595.797275696
320,0.0
506,0.0
550,0.0
2,1, 6,29, 1,21, 0.00,60.00,Saturday
7,20.55
8,8.45
9,101000.0
10,1.9
11,80.0
12,0.0
13,0.0
14,315.4389064969698
15,-3.6836398401970928
126,29.214047354840376
127,28.088095741430288
128,28.65107154813533
129,0.7180768866968923
216,0.0
217,0.0
218,26.379015042500709
317,0.0
478,0.0
541,0.0
542,0.0
543,0.0
544,0.0
545,0.0
546,0.0
547,0.0
575,0.0
18,202595.797275696
54,0.0
91,202595.797275696
320,0.0
506,0.0
550,0.0
2,1, 6,29, 1,22, 0.00,60.00,Saturday
7,18.725
8,8.875
9,101000.0
10,2.325
11,80.0
12,0.0
13,0.0
14,328.0086264726135
15,-9.501505458532059
126,28.880025445522557
127,27.595754111510137
128,28.237889778516349
129,0.7213652760127459
216,0.0
217,0.0
218,28.834138882584666
317,0.0
478,0.0
541,0.0
542,0.0
543,0.0
544,0.0
545,0.0
546,0.0
547,0.0
575,0.0
18,202595.797275696
54,0.0
91,202595.797275696
320,0.0
506,0.0
550,0.0
2,1, 6,29, 1,23, 0.00,60.00,Saturday
7,17.175
8,9.375
9,101000.0
10,2.6
11,72.5
12,0.0
13,0.0
14,341.45173596296589
15,-13.512017666375343
126,28.569332643050325
127,27.166121148877488
128,27.867726895963906
129,0.7241637062178905
216,0.0
217,0.0
218,30.991592709283315
317,0.0
478,0.0
541,0.0
542,0.0
543,0.0
544,0.0
545,0.0
546,0.0
547,0.0
575,0.0
18,202595.797275696
54,0.0
91,202595.797275696
320,0.0
506,0.0
550,0.0
2,1, 6,29, 1,24, 0.00,60.00,Saturday
7,15.75
8,10.55
9,101000.0
10,2.225
11,70.0
12,0.0
13,0.0
14,355.5337332933077
15,-15.386690676119987
126,28.275699548006004
127,26.7610298450875
128,27.51836469654675
129,0.7268009989768409
216,0.0
217,0.0
218,33.42774350394424
317,0.0
478,0.0
541,0.0
542,0.0
543,0.0
544,0.0
545,0.0
546,0.0
547,0.0
575,0.0
18,202595.797275696
54,0.0
91,202595.797275696
320,0.0
506,0.0
550,0.0
2,2, 6,30, 1, 1, 0.00,60.00,Sunday
7,14.575000000000001
8,11.35
9,101000.0
10,1.275
11,85.0
12,0.0
13,0.0
14,9.744769422904544
15,-15.007741306360135
126,27.989462591130648
127,26.388197432890608
128,27.188830012010628
129,0.7288460104555947
216,0.0
217,0.0
218,36.347477053212859
317,0.0
478,0.0
541,0.0
542,0.0
543,0.0
544,0.0
545,0.0
546,0.0
547,0.0
575,0.0
18,202595.797275696
54,0.0
91,202595.797275696
320,0.0
506,0.0
550,0.0
2,2, 6,30, 1, 2, 0.00,60.00,Sunday
7,14.075
8,11.725000000000002
9,101000.0
10,1.375
11,52.5
12,0.0
13,0.0
14,23.642563387200164
15,-12.30855299672457
126,27.709253075593965
127,26.088824959146196
128,26.89903901737008
129,0.7293604046365066
216,0.0
217,0.0
218,38.77366038228291
317,0.0
478,0.0
541,0.0
542,0.0
543,0.0
544,0.0
545,0.0
546,0.0
547,0.0
575,0.0
18,202595.797275696
54,0.0
91,202595.797275696
320,0.0
506,0.0
550,0.0
2,2, 6,30, 1, 3, 0.00,60.00,Sunday
7,12.2
8,10.45
9,101000.0
10,0.375
11,10.0
12,0.0
13,0.0
14,36.781188697775387
15,-7.581596604913326
126,27.427916173363607
127,25.668352324120926
128,26.548134248742266
129,0.7329888687815441
216,0.0
217,0.0
218,40.08414773037898
317,0.0
478,0.0
541,0.0
542,0.0
543,0.0
544,0.0
545,0.0
546,0.0
547,0.0
575,0.0
18,202595.797275696
54,0.0
91,202595.797275696
320,0.0
506,0.0
550,0.0
2,2, 6,30, 1, 4, 0.00,60.00,Sunday
7,10.549999999999999
8,9.100000000000002
9,100925.0
10,0.0
11,0.0
12,5.25
13,0.0
14,49.02734243085318
15,-1.1885534391208244
126,27.110733444612398
127,25.201022022220486
128,26.15587773341644
129,0.7360411885342615
216,0.0
217,0.0
218,39.29491990011374
317,0.0
478,0.0
541,0.0
542,0.0
543,0.0
544,0.0
545,0.0
546,0.0
547,0.0
575,0.0
18,202595.797275696
54,0.0
91,202595.797275696
320,0.0
506,0.0
550,0.0
2,2, 6,30, 1, 5, 0.00,60.00,Sunday
7,11.475000000000002
8,9.175
9,100975.0
10,0.0
11,0.0
12,36.75
13,37.25
14,60.49743507319466
15,6.4793542605071618
126,26.84640476104033
127,25.044208443180609
128,25.94530660211047
129,0.7333334578186348
216,0.0
217,0.0
218,37.83547518084786
317,0.0
478,0.0
541,0.0
542,0.0
543,0.0
544,0.0
545,0.0
546,0.0
547,0.0
575,0.0
18,202595.797275696
54,0.0
91,202595.797275696
320,0.0
506,0.0
550,0.0
2,2, 6,30, 1, 6, 0.00,60.00,Sunday
7,13.55
8,10.35
9,100925.0
10,0.75
11,60.0
12,95.5
13,204.25
14,71.49312261058147
15,15.05333377215078
126,26.75547507443473
127,25.173754097857939
128,25.964614586146337
129,0.7284458123937176
216,0.0
217,0.0
218,37.59272164650223
317,0.0
478,0.0
541,0.0
542,0.0
543,0.0
544,0.0
545,0.0
546,0.0
547,0.0
575,0.0
18,202595.797275696
54,0.0
91,202595.797275696
320,0.0
506,0.0
550,0.0
2,2, 6,30, 1, 7, 0.00,60.00,Sunday
7,15.525
8,11.375
9,100900.0
10,1.0
11,72.5
12,128.5
13,427.75
14,82.46423573429195
15,24.195436887101466
126,26.841998375786305
127,25.42566608780545
128,26.13383223179588
129,0.7241083683937276
216,0.0
217,0.0
218,38.68426148137082
317,0.0
478,0.0
541,0.0
542,0.0
543,0.0
544,0.0
545,0.0
546,0.0
547,0.0
575,0.0
18,202595.797275696
54,0.0
91,202595.797275696
320,0.0
506,0.0
550,0.0
2,2, 6,30, 1, 8, 0.00,60.00,Sunday
7,18.025
8,12.725
9,100900.0
10,1.0
11,70.0
12,126.75
13,627.25
14,94.03922373595174
15,33.57200016639785
126,27.102179023879065
127,25.853884140206405
128,26.478031582042733
129,0.7189738843060973
216,0.0
217,0.0
218,40.111361833951239
317,0.0
478,0.0
541,0.0
542,0.0
543,0.0
544,0.0
545,0.0
546,0.0
547,0.0
575,0.0
18,202595.797275696
54,0.0
91,202595.797275696
320,0.0
506,0.0
550,0.0
2,2, 6,30, 1, 9, 0.00,60.00,Sunday
7,21.25
8,14.0
9,100825.0
10,1.0
11,32.5
12,139.5
13,718.75
14,107.14403984347432
15,42.79112628809544
126,27.670593918157914
127,26.616051168634625
128,27.14332254339627
129,0.7133372730911722
216,0.0
217,0.0
218,40.59894523864433
317,0.0
478,0.0
541,0.0
542,0.0
543,0.0
544,0.0
545,0.0
546,0.0
547,0.0
575,0.0
18,202595.797275696
54,0.0
91,202595.797275696
320,0.0
506,0.0
550,0.0
2,2, 6,30, 1,10, 0.00,60.00,Sunday
7,24.575
8,15.125
9,100800.0
10,1.0
11,80.0
12,148.75
13,773.5
14,123.20237726255812
15,51.2805381252836
126,28.53305384954328
127,27.750074381820974
128,28.141564115682127
129,0.708226704556929
216,0.0
217,0.0
218,40.60247761798762
317,0.0
478,0.0
541,0.0
542,0.0
543,0.0
544,0.0
545,0.0
546,0.0
547,0.0
575,0.0
18,202595.797275696
54,0.0
91,202595.797275696
320,0.0
506,0.0
550,0.0
2,2, 6,30, 1,11, 0.00,60.00,Sunday
7,26.9
8,14.35
9,100725.0
10,1.0
11,160.0
12,138.75
13,825.0
14,144.13371075486448
15,58.07536411655637
126,29.518001417261627
127,28.977563408069483
128,29.247782412665555
129,0.705395764163866
216,0.0
217,0.0
218,39.82619164992732
317,0.0
478,0.0
541,0.0
542,0.0
543,0.0
544,0.0
545,0.0
546,0.0
547,0.0
575,0.0
18,202595.797275696
54,0.0
91,202595.797275696
320,0.0
506,0.0
550,0.0
2,2, 6,30, 1,12, 0.00,60.00,Sunday
7,28.3
8,14.524999999999999
9,100700.0
10,1.8250000000000002
11,255.0
12,146.25
13,832.5
14,170.81422106190508
15,61.686026737009189
126,30.418788709597913
127,30.064179580593764
128,30.24148414509584
129,0.7045809656547235
216,0.0
217,0.0
218,37.74160061342397
317,0.0
478,0.0
541,0.0
542,0.0
543,0.0
544,0.0
545,0.0
546,0.0
547,0.0
575,0.0
18,202595.797275696
54,0.0
91,202595.797275696
320,0.0
506,0.0
550,0.0
2,2, 6,30, 1,13, 0.00,60.00,Sunday
7,29.35
8,13.8
9,100700.0
10,1.275
11,175.0
12,142.5
13,834.25
14,199.5538196232395
15,60.83309473252679
126,31.135057914037849
127,30.813387430964285
128,30.974222672501069
129,0.7037644641111949
216,0.0
217,0.0
218,36.398934266106369
317,0.0
478,0.0
541,0.0
542,0.0
543,0.0
544,0.0
545,0.0
546,0.0
547,0.0
575,0.0
18,202595.797275696
54,0.0
91,202595.797275696
320,0.0
506,0.0
550,0.0
2,2, 6,30, 1,14, 0.00,60.00,Sunday
7,30.5
8,13.8
9,100625.0
10,1.375
11,117.5
12,134.25
13,821.5
14,224.24258440807547
15,55.85961797693483
126,31.59625387074066
127,31.36750740155206
128,31.481880636146359
129,0.7019974641013316
216,0.0
217,0.0
218,34.648367912625747
317,0.0
478,0.0
541,0.0
542,0.0
543,0.0
544,0.0
545,0.0
546,0.0
547,0.0
575,0.0
18,202595.797275696
54,0.0
91,202595.797275696
320,0.0
506,0.0
550,0.0
2,2, 6,30, 1,15, 0.00,60.00,Sunday
7,31.175
8,12.775
9,100600.0
10,1.5
11,217.5
12,126.5
13,785.0
14,243.1590492882226
15,48.29468777503402
126,31.759768094777848
127,31.627821704025079
128,31.693794899401465
129,0.7009461253811407
216,0.0
217,0.0
218,33.467284013223657
317,0.0
478,0.0
541,0.0
542,0.0
543,0.0
544,0.0
545,0.0
546,0.0
547,0.0
575,0.0
18,202595.797275696
54,0.0
91,202595.797275696
320,0.0
506,0.0
550,0.0
2,2, 6,30, 1,16, 0.00,60.00,Sunday
7,30.475
8,13.825000000000001
9,100600.0
10,2.7
11,210.0
12,132.5
13,694.5
14,257.9272157240342
15,39.45128606625799
126,31.655546389066325
127,31.521157225371014
128,31.588351807218666
129,0.7024666043206935
216,0.0
217,0.0
218,33.1015043847208
317,0.0
478,0.0
541,0.0
542,0.0
543,0.0
544,0.0
545,0.0
546,0.0
547,0.0
575,0.0
18,202595.797275696
54,0.0
91,202595.797275696
320,0.0
506,0.0
550,0.0
2,2, 6,30, 1,17, 0.00,60.00,Sunday
7,29.3
8,13.55
9,100600.0
10,2.725
11,192.5
12,118.75
13,581.5
14,270.33537560842958
15,30.12093906157144
126,31.413102307045258
127,31.188830328460129
128,31.300966317752694
129,0.7043707316436019
216,0.0
217,0.0
218,34.22282735723705
317,0.0
478,0.0
541,0.0
542,0.0
543,0.0
544,0.0
545,0.0
546,0.0
547,0.0
575,0.0
18,202595.797275696
54,0.0
91,202595.797275696
320,0.0
506,0.0
550,0.0
2,2, 6,30, 1,18, 0.00,60.00,Sunday
7,28.549999999999998
8,13.524999999999999
9,100525.0
10,2.975
11,205.0
12,110.75
13,374.5
14,281.60025394282345
15,20.78994820320998
126,31.173877831248885
127,30.866392358290086
128,31.020135094769488
129,0.70537235735438
216,0.0
217,0.0
218,34.70622435635616
317,0.0
478,0.0
541,0.0
542,0.0
543,0.0
544,0.0
545,0.0
546,0.0
547,0.0
575,0.0
18,202595.797275696
54,0.0
91,202595.797275696
320,0.0
506,0.0
550,0.0
2,2, 6,30, 1,19, 0.00,60.00,Sunday
7,26.975
8,13.825
9,100575.0
10,2.35
11,232.5
12,73.75
13,142.5
14,292.5184000844457
15,11.818582445224483
126,30.879409764147778
127,30.4335104693365
128,30.65646011674214
129,0.708308798611419
216,0.0
217,0.0
218,35.717697096341158
317,0.0
478,0.0
541,0.0
542,0.0
543,0.0
544,0.0
545,0.0
546,0.0
547,0.0
575,0.0
18,202595.797275696
54,0.0
91,202595.797275696
320,0.0
506,0.0
550,0.0
2,2, 6,30, 1,20, 0.00,60.00,Sunday
7,25.299999999999998
8,13.9
9,100600.0
10,1.275
11,210.0
12,21.25
13,0.0
14,303.643881306359
15,3.5369615300689496
126,30.52203443262071
127,29.779005551193014
128,30.15051999190686
129,0.7107278512789821
216,0.0
217,0.0
218,37.46214564059261
317,0.0
478,0.0
541,0.0
542,0.0
543,0.0
544,0.0
545,0.0
546,0.0
547,0.0
575,0.0
18,202595.797275696
54,0.0
91,202595.797275696
320,0.0
506,0.0
550,0.0
2,2, 6,30, 1,21, 0.00,60.00,Sunday
7,23.625
8,13.975
9,100600.0
10,0.25
11,140.0
12,0.0
13,0.0
14,315.37262367142025
15,-3.7070203988646135
126,30.17265991401274
127,29.29136393951804
128,29.73201192676539
129,0.7133826400576977
216,0.0
217,0.0
218,38.72915333188455
317,0.0
478,0.0
541,0.0
542,0.0
543,0.0
544,0.0
545,0.0
546,0.0
547,0.0
575,0.0
18,202595.797275696
54,0.0
91,202595.797275696
320,0.0
506,0.0
550,0.0
2,2, 6,30, 1,22, 0.00,60.00,Sunday
7,21.775
8,14.0
9,100600.0
10,0.0
11,0.0
12,0.0
13,0.0
14,327.9452023161453
15,-9.533210578951568
126,29.854125563655705
127,28.813765935257359
128,29.333945749456534
129,0.7167234136544074
216,0.0
217,0.0
218,40.01366429478571
317,0.0
478,0.0
541,0.0
542,0.0
543,0.0
544,0.0
545,0.0
546,0.0
547,0.0
575,0.0
18,202595.797275696
54,0.0
91,202595.797275696
320,0.0
506,0.0
550,0.0
2,2, 6,30, 1,23, 0.00,60.00,Sunday
7,19.725
8,13.850000000000002
9,100450.0
10,0.0
11,0.0
12,0.0
13,0.0
14,341.3930588564699
15,-13.552763364152277
126,29.547110902540547
127,28.327437345081785
128,28.937274123811166
129,0.7205647706593911
216,0.0
217,0.0
218,41.18712009089076
317,0.0
478,0.0
541,0.0
542,0.0
543,0.0
544,0.0
545,0.0
546,0.0
547,0.0
575,0.0
18,202595.797275696
54,0.0
91,202595.797275696
320,0.0
506,0.0
550,0.0
2,2, 6,30, 1,24, 0.00,60.00,Sunday
7,17.55
8,13.5
9,100250.0
10,1.9500000000000002
11,0.0
12,0.0
13,0.0
14,355.48234084270725
15,-15.436277624354294
126,29.242432636005665
127,27.83367422868542
128,28.538053432345543
129,0.7247374570337979
216,0.0
217,0.0
218,42.0188136556937
317,0.0
478,0.0
541,0.0
542,0.0
543,0.0
544,0.0
545,0.0
546,0.0
547,0.0
575,0.0
18,202595.797275696
54,0.0
91,202595.797275696
320,0.0
506,0.0
550,0.0
2,3, 7, 1, 1, 1, 0.00,60.00,Monday
7,15.575
8,13.025
9,100050.0
10,0.65
11,0.0
12,0.0
13,0.0
14,9.704415068194033
15,-15.071607528403942
126,28.927763735868536
127,27.340092730224418
128,28.133928233046477
129,0.7284852871856573
216,0.0
217,0.0
218,42.442279156108899
317,0.0
478,0.0
541,0.0
542,0.0
543,0.0
544,0.0
545,0.0
546,0.0
547,0.0
575,0.0
18,202595.797275696
54,0.0
91,202595.797275696
320,0.0
506,0.0
550,0.0
2,3, 7, 1, 1, 2, 0.00,60.00,Monday
7,13.9
8,12.450000000000001
9,99850.0
10,0.0
11,0.0
12,0.0
13,0.0
14,23.61367862663881
15,-12.377859190486096
126,28.666743024647667
127,26.93453395630952
128,27.800638490478595
129,0.7317227288166741
216,0.0
217,0.0
218,42.320880177733688
317,0.0
478,0.0
541,0.0
542,0.0
543,0.0
544,0.0
545,0.0
546,0.0
547,0.0
575,0.0
18,202595.797275696
54,0.0
91,202595.797275696
320,0.0
506,0.0
550,0.0
2,3, 7, 1, 1, 3, 0.00,60.00,Monday
7,12.675
8,11.925
9,99725.0
10,0.75
11,255.0
12,0.0
13,0.0
14,36.76301948483389
15,-7.654240116686706
126,28.405240292536857
127,26.59106602578916
128,27.498153159163008
129,0.7340172296022213
216,0.0
217,0.0
218,41.78643160623799
317,0.0
478,0.0
541,0.0
542,0.0
543,0.0
544,0.0
545,0.0
546,0.0
547,0.0
575,0.0
18,202595.797275696
54,0.0
91,202595.797275696
320,0.0
506,0.0
550,0.0
2,3, 7, 1, 1, 4, 0.00,60.00,Monday
7,11.950000000000001
8,11.649999999999999
9,99625.0
10,1.0
11,220.0
12,2.75
13,0.0
14,49.0181841670843
15,-1.262845320136298
126,28.124308490504995
127,26.26413746855082
128,27.194222979527909
129,0.7350954773133236
216,0.0
217,0.0
218,41.33748690905524
317,0.0
478,0.0
541,0.0
542,0.0
543,0.0
544,0.0
545,0.0
546,0.0
547,0.0
575,0.0
18,202595.797275696
54,0.0
91,202595.797275696
320,0.0
506,0.0
550,0.0
2,3, 7, 1, 1, 5, 0.00,60.00,Monday
7,11.5
8,11.449996948242188
9,99600.0
10,1.0
11,212.5
12,23.25
13,0.0
14,60.49533010764466
15,6.404518699806641
126,27.71726488224121
127,23.992379584891887
128,25.854822233566549
129,0.7310076208555019
216,0.0
217,1276.4525880722802
218,46.63917952454511
317,0.0
478,0.0
541,0.0
542,1341.9927243558745
543,1342.0068544904484
544,0.0
545,0.0
546,0.0
547,0.0
575,0.0
18,202595.797275696
54,0.0
91,202595.797275696
320,0.0
506,4831224.676165614
550,0.0
2,3, 7, 1, 1, 6, 0.00,60.00,Monday
7,11.025
8,11.024992534912851
9,99600.0
10,1.375
11,232.5
12,58.5
13,0.0
14,71.49621517033543
15,14.978519258036386
126,27.19890234095229
127,23.999999999959507
128,25.5994511704559
129,0.7319054694292863
216,0.0
217,1186.058812189814
218,45.877665686203787
317,0.0
478,0.0
541,0.0
542,1186.0588121465003
543,1186.0588121465003
544,0.0
545,0.0
546,0.0
547,0.0
575,0.0
18,202595.797275696
54,0.0
91,202595.797275696
320,0.0
506,4269811.723727401
550,0.0
2,3, 7, 1, 1, 7, 0.00,60.00,Monday
7,11.725
8,11.125
9,99675.0
10,1.5
11,232.5
12,62.25
13,0.0
14,82.47070931864269
15,24.120789937975844
126,27.168109579487959
127,23.999999999999486
128,25.58405478974372
129,0.7301236750897336
216,0.0
217,2716.667323447741
218,45.74431195212017
317,31.44883832635234
478,0.0
541,0.0
542,2348.1703192707673
543,2348.1703192707673
544,0.0
545,0.0
546,0.0
547,0.0
575,0.2960075432663444
18,10138185.6984
54,6382238.4
91,3755947.2984
320,113215.81797486844
506,8453413.149374763
550,0.0
2,3, 7, 1, 1, 8, 0.00,60.00,Monday
7,11.850000000000002
8,11.05
9,99700.0
10,1.9500000000000002
11,237.5
12,130.5
13,17.25
14,94.04678607758382
15,33.497385771399979
126,27.20183799243195
127,24.000000000000094
128,25.600918996216025
129,0.7297733838748635
216,0.0
217,2865.419650435875
218,46.430610600236239
317,62.89767665270468
478,0.0
541,0.0
542,2135.829326870268
543,2135.829326870268
544,0.0
545,0.0
546,0.0
547,0.0
575,0.591987883144707
18,10138185.6984
54,6382238.4
91,3755947.2984
320,226431.63594973688
506,7688985.576732964
550,0.0
2,3, 7, 1, 1, 9, 0.00,60.00,Monday
7,12.85
8,11.225000000000002
9,99700.0
10,2.475
11,232.5
12,278.5
13,66.25
14,107.14863458069526
15,42.7163338099585
126,27.44082397197968
127,23.9999999999999
128,25.720411985989789
129,0.7271956850963119
216,0.0
217,3327.5030045042495
218,47.6445264129832
317,125.79535330540937
478,0.0
541,0.0
542,1987.9167010295214
543,1987.9167010295214
544,0.0
545,0.0
546,0.0
547,0.0
575,1.1844123312928246
18,10138185.6984
54,6382238.4
91,3755947.2984
320,452863.27189947376
506,7156500.123706277
550,0.0
2,3, 7, 1, 1,10, 0.00,60.00,Monday
7,14.025
8,11.0
9,99700.0
10,2.6
11,230.0
12,350.5
13,48.0
14,123.1953458796392
15,51.205828231375487
126,27.68172234219822
127,24.0000000000002
128,25.84086117109921
129,0.7241765323129621
216,0.0
217,3586.435831614969
218,48.363725182145369
317,125.79535330540937
478,0.0
541,0.0
542,2387.2111740183773
543,2387.2111740183773
544,0.0
545,0.0
546,0.0
547,0.0
575,1.1846711125342116
18,10138185.6984
54,6382238.4
91,3755947.2984
320,452863.27189947376
506,8593960.226466159
550,0.0
2,3, 7, 1, 1,11, 0.00,60.00,Monday
7,14.975
8,10.450000000000001
9,99775.0
10,2.225
11,222.5
12,415.5
13,18.25
14,144.09794548324187
15,58.003014699626927
126,27.87857342207064
127,24.00000000000003
128,25.939286711035338
129,0.7217590406179654
216,0.0
217,3801.3753212616857
218,47.92938258621773
317,125.79535330540937
478,0.0
541,0.0
542,2715.9605526021123
543,2715.9605526021123
544,0.0
545,0.0
546,0.0
547,0.0
575,1.1836115818391578
18,10138185.6984
54,6382238.4
91,3755947.2984
320,452863.27189947376
506,9777457.989367605
550,0.0
2,3, 7, 1, 1,12, 0.00,60.00,Monday
7,15.425
8,9.55
9,99800.0
10,2.475
11,242.5
12,435.5
13,19.0
14,170.73138918241637
15,61.62258095339543
126,28.018518877951665
127,24.0000000000001
128,26.00925943897588
129,0.7205998046129246
216,0.0
217,3820.765803988379
218,46.54755845078537
317,94.34651497905702
478,0.0
541,0.0
542,3047.2770208825764
543,3047.2770208825764
544,0.0
545,0.0
546,0.0
547,0.0
575,0.8871110161671614
18,10138185.6984
54,6382238.4
91,3755947.2984
320,339647.4539246053
506,10970197.275177274
550,0.0
2,3, 7, 1, 1,13, 0.00,60.00,Monday
7,17.075000000000004
8,9.6
9,99800.0
10,4.1
11,227.5
12,426.0
13,25.0
14,199.43479757957562
15,60.78623053855087
126,28.097067791886539
127,24.00000000000025
128,26.048533895943394
129,0.7165473529287177
216,0.0
217,4005.2127937791347
218,45.28697339479455
317,94.34651497905702
478,0.0
541,0.0
542,3380.6560839054564
543,3380.6560839054564
544,0.0
545,0.0
546,0.0
547,0.0
575,0.8867719182353386
18,10138185.6984
54,6382238.4
91,3755947.2984
320,339647.4539246053
506,12170361.902059645
550,0.0
2,3, 7, 1, 1,14, 0.00,60.00,Monday
7,17.0
8,10.75
9,99800.0
10,4.225
11,212.5
12,387.25
13,36.75
14,224.12047500401523
15,55.82956674223654
126,28.11058625975614
127,24.000000000000264
128,26.0552931298782
129,0.7168063160317053
216,0.0
217,4130.771184487244