Program Version,EnergyPlus, Version 9.2.0-921312fa1d, YMD=2020.11.13 15:28
1,5,Environment Title[],Latitude[deg],Longitude[deg],Time Zone[],Elevation[m]
2,8,Day of Simulation[],Month[],Day of Month[],DST Indicator[1=yes 0=no],Hour[],StartMinute[],EndMinute[],DayType
3,5,Cumulative Day of Simulation[],Month[],Day of Month[],DST Indicator[1=yes 0=no],DayType  ! When Daily Report Variables Requested
4,2,Cumulative Days of Simulation[],Month[]  ! When Monthly Report Variables Requested
5,1,Cumulative Days of Simulation[] ! When Run Period Report Variables Requested
6,1,Calendar Year of Simulation[] ! When Annual Report Variables Requested
167,1,BLOCK1:ZONE1,Zone Mean Air Temperature [C] !TimeStep,OFFICE_OPENOFF_OCC
168,1,BLOCK1:ZONE1,Zone Mean Air Temperature [C] !Hourly,ON
169,7,BLOCK1:ZONE1,Zone Mean Air Temperature [C] !Daily [Value,Min,Hour,Minute,Max,Hour,Minute],ON
170,9,BLOCK1:ZONE1,Zone Mean Air Temperature [C] !Monthly [Value,Min,Day,Hour,Minute,Max,Day,Hour,Minute],ON
171,11,BLOCK1:ZONE1,Zone Mean Air Temperature [C] !Annual [Value,Min,Month,Day,Hour,Minute,Max,Month,Day,Hour,Minute],ON
172,11,BLOCK1:ZONE1,Zone Mean Air Temperature [C] !RunPeriod [Value,Min,Month,Day,Hour,Minute,Max,Month,Day,Hour,Minute],ON
173,1,BLOCK1:ZONE1,Zone Mean Air Temperature [C] !Hourly
174,1,BLOCK2:ZONE1,Zone Mean Air Temperature [C] !TimeStep,OFFICE_OPENOFF_OCC
175,1,BLOCK2:ZONE1,Zone Mean Air Temperature [C] !Hourly,ON
176,7,BLOCK2:ZONE1,Zone Mean Air Temperature [C] !Daily [Value,Min,Hour,Minute,Max,Hour,Minute],ON
177,9,BLOCK2:ZONE1,Zone Mean Air Temperature [C] !Monthly [Value,Min,Day,Hour,Minute,Max,Day,Hour,Minute],ON
178,11,BLOCK2:ZONE1,Zone Mean Air Temperature [C] !Annual [Value,Min,Month,Day,Hour,Minute,Max,Month,Day,Hour,Minute],ON
179,11,BLOCK2:ZONE1,Zone Mean Air Temperature [C] !RunPeriod [Value,Min,Month,Day,Hour,Minute,Max,Month,Day,Hour,Minute],ON
180,1,BLOCK2:ZONE1,Zone Mean Air Temperature [C] !Hourly
540,1,BLOCK1:ZONE1 IDEAL LOADS AIR,Zone Ideal Loads Supply Air Total Cooling Rate [W] !TimeStep
541,7,BLOCK1:ZONE1 IDEAL LOADS AIR,Zone Ideal Loads Supply Air Total Cooling Rate [W] !Daily [Value,Min,Hour,Minute,Max,Hour,Minute]
542,1,BLOCK1:ZONE1 IDEAL LOADS AIR,Zone Ideal Loads Supply Air Total Cooling Rate [W] !Hourly
543,9,BLOCK1:ZONE1 IDEAL LOADS AIR,Zone Ideal Loads Supply Air Total Cooling Rate [W] !Monthly [Value,Min,Day,Hour,Minute,Max,Day,Hour,Minute]
544,11,BLOCK1:ZONE1 IDEAL LOADS AIR,Zone Ideal Loads Supply Air Total Cooling Rate [W] !RunPeriod [Value,Min,Month,Day,Hour,Minute,Max,Month,Day,Hour,Minute]
545,11,BLOCK1:ZONE1 IDEAL LOADS AIR,Zone Ideal Loads Supply Air Total Cooling Rate [W] !Annual [Value,Min,Month,Day,Hour,Minute,Max,Month,Day,Hour,Minute]
548,1,BLOCK2:ZONE1 IDEAL LOADS AIR,Zone Ideal Loads Supply Air Total Cooling Rate [W] !TimeStep
549,7,BLOCK2:ZONE1 IDEAL LOADS AIR,Zone Ideal Loads Supply Air Total Cooling Rate [W] !Daily [Value,Min,Hour,Minute,Max,Hour,Minute]
550,1,BLOCK2:ZONE1 IDEAL LOADS AIR,Zone Ideal Loads Supply Air Total Cooling Rate [W] !Hourly
551,9,BLOCK2:ZONE1 IDEAL LOADS AIR,Zone Ideal Loads Supply Air Total Cooling Rate [W] !Monthly [Value,Min,Day,Hour,Minute,Max,Day,Hour,Minute]
552,11,BLOCK2:ZONE1 IDEAL LOADS AIR,Zone Ideal Loads Supply Air Total Cooling Rate [W] !RunPeriod [Value,Min,Month,Day,Hour,Minute,Max,Month,Day,Hour,Minute]
553,11,BLOCK2:ZONE1 IDEAL LOADS AIR,Zone Ideal Loads Supply Air Total Cooling Rate [W] !Annual [Value,Min,Month,Day,Hour,Minute,Max,Month,Day,Hour,Minute]
8,1,Electricity:Facility [J] !TimeStep
10,7,Electricity:Facility [J] !Daily [Value,Min,Hour,Minute,Max,Hour,Minute]
11,9,Electricity:Facility [J] !Monthly [Value,Min,Day,Hour,Minute,Max,Day,Hour,Minute]
13,11,Electricity:Facility [J] !RunPeriod [Value,Min,Month,Day,Hour,Minute,Max,Month,Day,Hour,Minute]
12,11,Electricity:Facility [J] !Annual [Value,Min,Month,Day,Hour,Minute,Max,Month,Day,Hour,Minute]
9,1,Electricity:Facility [J] !Hourly
15,1,Cumulative Electricity:Facility [J] !Hourly
505,1,DistrictCooling:Facility [J] !Hourly
468,1,DistrictHeating:Facility [J] !Hourly
556,1,Carbon Equivalent:Facility [kg] !Hourly
506,7,DistrictCooling:Facility [J] !Daily [Value,Min,Hour,Minute,Max,Hour,Minute]
469,7,DistrictHeating:Facility [J] !Daily [Value,Min,Hour,Minute,Max,Hour,Minute]
557,7,Carbon Equivalent:Facility [kg] !Daily [Value,Min,Hour,Minute,Max,Hour,Minute]
507,9,DistrictCooling:Facility [J] !Monthly [Value,Min,Day,Hour,Minute,Max,Day,Hour,Minute]
470,9,DistrictHeating:Facility [J] !Monthly [Value,Min,Day,Hour,Minute,Max,Day,Hour,Minute]
558,9,Carbon Equivalent:Facility [kg] !Monthly [Value,Min,Day,Hour,Minute,Max,Day,Hour,Minute]
509,11,DistrictCooling:Facility [J] !RunPeriod [Value,Min,Month,Day,Hour,Minute,Max,Month,Day,Hour,Minute]
472,11,DistrictHeating:Facility [J] !RunPeriod [Value,Min,Month,Day,Hour,Minute,Max,Month,Day,Hour,Minute]
560,11,Carbon Equivalent:Facility [kg] !RunPeriod [Value,Min,Month,Day,Hour,Minute,Max,Month,Day,Hour,Minute]
504,1,DistrictCooling:Facility [J] !TimeStep
467,1,DistrictHeating:Facility [J] !TimeStep
555,1,Carbon Equivalent:Facility [kg] !TimeStep
End of Data Dictionary
1,UNTITLED (01-01:31-12),  42.36, -71.01,  -5.00,   3.70
2,1, 1, 1, 0, 1, 0.00,30.00,Wednesday
540,0.0
548,0.0
8,1527200.48060316
467,0.0
504,0.0
555,0.0
2,1, 1, 1, 0, 1,30.00,60.00,Wednesday
540,0.0
548,0.0
8,1527200.48060316
467,0.0
504,0.0
555,0.0
2,1, 1, 1, 0, 1, 0.00,60.00,Wednesday
168,15.911760171840716
173,15.911760171840716
175,15.781872488638001
180,15.781872488638001
542,0.0
550,0.0
9,3054400.96120632
15,3054400.96120632
468,0.0
505,0.0
556,0.0
2,1, 1, 1, 0, 2, 0.00,30.00,Wednesday
540,0.0
548,0.0
8,1527200.48060316
467,0.0
504,0.0
555,0.0
2,1, 1, 1, 0, 2,30.00,60.00,Wednesday
540,0.0
548,0.0
8,1527200.48060316
467,0.0
504,0.0
555,0.0
2,1, 1, 1, 0, 2, 0.00,60.00,Wednesday
168,15.855089972102136
173,15.855089972102136
175,15.625032032120198
180,15.625032032120198
542,0.0
550,0.0
9,3054400.96120632
15,6108801.92241264
468,0.0
505,0.0
556,0.0
2,1, 1, 1, 0, 3, 0.00,30.00,Wednesday
540,0.0
548,0.0
8,1527200.48060316
467,0.0
504,0.0
555,0.0
2,1, 1, 1, 0, 3,30.00,60.00,Wednesday
540,0.0
548,0.0
8,1527200.48060316
467,0.0
504,0.0
555,0.0
2,1, 1, 1, 0, 3, 0.00,60.00,Wednesday
168,15.539398017066706
173,15.539398017066706
175,15.236899604603602
180,15.236899604603602
542,0.0
550,0.0
9,3054400.96120632
15,9163202.88361896
468,0.0
505,0.0
556,0.0
2,1, 1, 1, 0, 4, 0.00,30.00,Wednesday
540,0.0
548,0.0
8,1527200.48060316
467,0.0
504,0.0
555,0.0
2,1, 1, 1, 0, 4,30.00,60.00,Wednesday
540,0.0
548,0.0
8,1527200.48060316
467,0.0
504,0.0
555,0.0
2,1, 1, 1, 0, 4, 0.00,60.00,Wednesday
168,15.255485096842488
173,15.255485096842488
175,14.89874275038807
180,14.89874275038807
542,0.0
550,0.0
9,3054400.96120632
15,12217603.84482528
468,0.0
505,0.0
556,0.0
2,1, 1, 1, 0, 5, 0.00,30.00,Wednesday
540,0.0
548,0.0
8,1527200.48060316
467,0.0
504,0.0
555,0.0
2,1, 1, 1, 0, 5,30.00,60.00,Wednesday
540,0.0
548,0.0
8,1527200.48060316
467,0.0
504,0.0
555,0.0
2,1, 1, 1, 0, 5, 0.00,60.00,Wednesday
168,14.984032015836242
173,14.984032015836242
175,14.571932185919647
180,14.571932185919647
542,0.0
550,0.0
9,3054400.96120632
15,15272004.806031602
468,0.0
505,0.0
556,0.0
2,1, 1, 1, 0, 6, 0.00,30.00,Wednesday
540,0.0
548,0.0
8,1527200.48060316
467,142538247.68106408
504,0.0
555,0.0
2,1, 1, 1, 0, 6,30.00,60.00,Wednesday
540,0.0
548,0.0
8,1527200.48060316
467,112816963.0778979
504,0.0
555,0.0
2,1, 1, 1, 0, 6, 0.00,60.00,Wednesday
168,21.65158325411585
173,21.65158325411585
175,21.603104864366637
180,21.603104864366637
542,0.0
550,0.0
9,3054400.96120632
15,18326405.76723792
468,255355210.75896199
505,0.0
556,0.0
2,1, 1, 1, 0, 7, 0.00,30.00,Wednesday
540,0.0
548,0.0
8,1527200.48060316
467,104967181.32514477
504,0.0
555,0.0
2,1, 1, 1, 0, 7,30.00,60.00,Wednesday
540,0.0
548,0.0
8,1527200.48060316
467,94161640.06919185
504,0.0
555,0.0
2,1, 1, 1, 0, 7, 0.00,60.00,Wednesday
168,21.999750678386705
173,21.999750678386705
175,21.999560640982489
180,21.999560640982489
542,0.0
550,0.0
9,3054400.96120632
15,21380806.728444239
468,199128821.3943366
505,0.0
556,0.0
2,1, 1, 1, 0, 8, 0.00,30.00,Wednesday
167,21.99999016977763
174,21.999978593957026
540,0.0
548,0.0
8,76423313.21399999
467,42617751.755303878
504,0.0
555,0.0
2,1, 1, 1, 0, 8,30.00,60.00,Wednesday
167,21.999999032366817
174,21.999997543508539
540,0.0
548,0.0
8,76423313.21399999
467,37179065.65136646
504,0.0
555,0.0
2,1, 1, 1, 0, 8, 0.00,60.00,Wednesday
168,21.999994601072225
173,21.999994601072225
175,21.999988068732784
180,21.999988068732784
542,0.0
550,0.0
9,152846626.42799998
15,174227433.1564442
468,79796817.40667033
505,0.0
556,0.0
2,1, 1, 1, 0, 9, 0.00,30.00,Wednesday
167,21.999999923210575
174,21.999999769246349
540,0.0
548,0.0
8,76423313.21399999
467,29200335.72934188
504,0.0
555,0.0
2,1, 1, 1, 0, 9,30.00,60.00,Wednesday
167,21.99999999457344
174,21.999999980734594
540,0.0
548,0.0
8,76423313.21399999
467,25413174.559262746
504,0.0
555,0.0
2,1, 1, 1, 0, 9, 0.00,60.00,Wednesday
168,21.999999958892006
173,21.999999958892006
175,21.999999874990473
180,21.999999874990473
542,0.0
550,0.0
9,152846626.42799998
15,327074059.58444419
468,54613510.288604628
505,0.0
556,0.0
2,1, 1, 1, 0,10, 0.00,30.00,Wednesday
167,21.9999999997826
174,21.999999998992747
540,0.0
548,0.0
8,76423313.21399999
467,14584058.041898925
504,0.0
555,0.0
2,1, 1, 1, 0,10,30.00,60.00,Wednesday
167,21.999999999993248
174,21.99999999995755
540,0.0
548,0.0
8,76423313.21399999
467,11328373.816809938
504,0.0
555,0.0
2,1, 1, 1, 0,10, 0.00,60.00,Wednesday
168,21.999999999887924
173,21.999999999887924
175,21.999999999475148
180,21.999999999475148
542,0.0
550,0.0
9,152846626.42799998
15,479920686.01244416
468,25912431.858708864
505,0.0
556,0.0
2,1, 1, 1, 0,11, 0.00,30.00,Wednesday
167,21.999999999999838
174,21.999999999998573
540,0.0
548,0.0
8,76423313.21399999
467,8886736.149067702
504,0.0
555,0.0
2,1, 1, 1, 0,11,30.00,60.00,Wednesday
167,21.999999999999998
174,21.999999999999959
540,0.0
548,0.0
8,76423313.21399999
467,6683674.480517806
504,0.0
555,0.0
2,1, 1, 1, 0,11, 0.00,60.00,Wednesday
168,21.999999999999916
173,21.999999999999916
175,21.999999999999266
180,21.999999999999266
542,0.0
550,0.0
9,152846626.42799998
15,632767312.4404441
468,15570410.629585509
505,0.0
556,0.0
2,1, 1, 1, 0,12, 0.00,30.00,Wednesday
167,22.000000000000005
174,22.0
540,0.0
548,0.0
8,76423313.21399999
467,4660141.048687428
504,0.0
555,0.0
2,1, 1, 1, 0,12,30.00,60.00,Wednesday
167,21.999999999999994
174,22.0
540,0.0
548,0.0
8,76423313.21399999
467,2804550.3799078746
504,0.0
555,0.0
2,1, 1, 1, 0,12, 0.00,60.00,Wednesday
168,22.0
173,22.0
175,22.0
180,22.0
542,0.0
550,0.0
9,152846626.42799998
15,785613938.8684441
468,7464691.428595303
505,0.0
556,0.0
2,1, 1, 1, 0,13, 0.00,30.00,Wednesday
167,22.000000000000005
174,22.000000000000026
540,0.0
548,0.0
8,76423313.21399999
467,4811847.654147463
504,0.0
555,0.0
2,1, 1, 1, 0,13,30.00,60.00,Wednesday
167,22.000000000000008
174,22.000000000000019
540,0.0
548,0.0
8,76423313.21399999
467,3346492.6605114426
504,0.0
555,0.0
2,1, 1, 1, 0,13, 0.00,60.00,Wednesday
168,22.000000000000008
173,22.000000000000008
175,22.00000000000002
180,22.00000000000002
542,0.0
550,0.0
9,152846626.42799998
15,938460565.296444
468,8158340.314658905
505,0.0
556,0.0
2,1, 1, 1, 0,14, 0.00,30.00,Wednesday
167,22.0
174,22.000000000000005
540,0.0
548,0.0
8,76423313.21399999
467,2304835.064447412
504,0.0
555,0.0
2,1, 1, 1, 0,14,30.00,60.00,Wednesday
167,22.0
174,22.0
540,0.0
548,0.0
8,76423313.21399999
467,1381627.8498596759
504,0.0
555,0.0
2,1, 1, 1, 0,14, 0.00,60.00,Wednesday
168,22.0
173,22.0
175,22.0
180,22.0
542,0.0
550,0.0
9,152846626.42799998
15,1091307191.724444
468,3686462.9143070878
505,0.0
556,0.0
2,1, 1, 1, 0,15, 0.00,30.00,Wednesday
167,22.19792121872256
174,22.10102931160556
540,0.0
548,0.0
8,76423313.21399999
467,0.0
504,0.0
555,0.0
2,1, 1, 1, 0,15,30.00,60.00,Wednesday
167,22.36974451920001
174,22.20758637279889
540,0.0
548,0.0
8,76423313.21399999
467,0.0
504,0.0
555,0.0
2,1, 1, 1, 0,15, 0.00,60.00,Wednesday
168,22.283832868961285
173,22.283832868961285
175,22.154307842202227
180,22.154307842202227
542,0.0
550,0.0
9,152846626.42799998
15,1244153818.152444
468,0.0
505,0.0
556,0.0
2,1, 1, 1, 0,16, 0.00,30.00,Wednesday
167,22.44726473584629
174,22.27866788669479
540,0.0
548,0.0
8,76423313.21399999
467,0.0
504,0.0
555,0.0
2,1, 1, 1, 0,16,30.00,60.00,Wednesday
167,22.490252551479416
174,22.333516348843998
540,0.0
548,0.0
8,76423313.21399999
467,0.0
504,0.0
555,0.0
2,1, 1, 1, 0,16, 0.00,60.00,Wednesday
168,22.468758643662853
173,22.468758643662853
175,22.306092117769397
180,22.306092117769397
542,0.0
550,0.0
9,152846626.42799998
15,1397000444.5804439
468,0.0
505,0.0
556,0.0
2,1, 1, 1, 0,17, 0.00,30.00,Wednesday
167,22.539110585845799
174,22.38720258547113
540,0.0
548,0.0
8,76423313.21399999
467,0.0
504,0.0
555,0.0
2,1, 1, 1, 0,17,30.00,60.00,Wednesday
167,22.59444028454904
174,22.441320731943219
540,0.0
548,0.0
8,76423313.21399999
467,0.0
504,0.0
555,0.0
2,1, 1, 1, 0,17, 0.00,60.00,Wednesday
168,22.56677543519742
173,22.56677543519742
175,22.414261658707177
180,22.414261658707177
542,0.0
550,0.0
9,152846626.42799998
15,1549847071.0084439
468,0.0
505,0.0
556,0.0
2,1, 1, 1, 0,18, 0.00,30.00,Wednesday
167,22.304607185846878
174,22.1472422924377
540,0.0
548,0.0
8,76423313.21399999
467,0.0
504,0.0
555,0.0
2,1, 1, 1, 0,18,30.00,60.00,Wednesday
167,22.0911472590921
174,22.00068535217954
540,0.0
548,0.0
8,76423313.21399999
467,608485.7132088058
504,0.0
555,0.0
2,1, 1, 1, 0,18, 0.00,60.00,Wednesday
168,22.197877222469488
173,22.197877222469488
175,22.07396382230862
180,22.07396382230862
542,0.0
550,0.0
9,152846626.42799998
15,1702693697.4364439
468,608485.7132088058
505,0.0
556,0.0
2,1, 1, 1, 0,19, 0.00,30.00,Wednesday
167,22.000848851986093
174,22.00001145819436
540,0.0
548,0.0
8,76423313.21399999
467,3380477.8733774188
504,0.0
555,0.0
2,1, 1, 1, 0,19,30.00,60.00,Wednesday
167,22.000008303261859
174,22.00000016444378
540,0.0
548,0.0
8,76423313.21399999
467,3105905.444791069
504,0.0
555,0.0
2,1, 1, 1, 0,19, 0.00,60.00,Wednesday
168,22.000428577623976
173,22.000428577623976
175,22.00000581131907
180,22.00000581131907
542,0.0
550,0.0
9,152846626.42799998
15,1855540323.8644438
468,6486383.318168487
505,0.0
556,0.0
2,1, 1, 1, 0,20, 0.00,30.00,Wednesday
540,0.0
548,0.0
8,28312949.213999999
467,0.0
504,0.0
555,0.0
2,1, 1, 1, 0,20,30.00,60.00,Wednesday
540,0.0
548,0.0
8,28312949.213999999
467,0.0
504,0.0
555,0.0
2,1, 1, 1, 0,20, 0.00,60.00,Wednesday
168,19.869413340204447
173,19.869413340204447
175,19.869882162724456
180,19.869882162724456
542,0.0
550,0.0
9,56625898.427999999
15,1912166222.2924438
468,0.0
505,0.0
556,0.0
2,1, 1, 1, 0,21, 0.00,30.00,Wednesday
540,0.0
548,0.0
8,1527200.48060316
467,0.0
504,0.0
555,0.0
2,1, 1, 1, 0,21,30.00,60.00,Wednesday
540,0.0
548,0.0
8,1527200.48060316
467,0.0
504,0.0
555,0.0
2,1, 1, 1, 0,21, 0.00,60.00,Wednesday
168,17.671514605493198
173,17.671514605493198
175,17.804131891676748
180,17.804131891676748
542,0.0
550,0.0
9,3054400.96120632
15,1915220623.2536503
468,0.0
505,0.0
556,0.0
2,1, 1, 1, 0,22, 0.00,30.00,Wednesday
540,0.0
548,0.0
8,1527200.48060316
467,0.0
504,0.0
555,0.0
2,1, 1, 1, 0,22,30.00,60.00,Wednesday
540,0.0
548,0.0
8,1527200.48060316
467,0.0
504,0.0
555,0.0
2,1, 1, 1, 0,22, 0.00,60.00,Wednesday
168,16.925242691315213
173,16.925242691315213
175,17.06665885676592
180,17.06665885676592
542,0.0
550,0.0
9,3054400.96120632
15,1918275024.2148567
468,0.0
505,0.0
556,0.0
2,1, 1, 1, 0,23, 0.00,30.00,Wednesday
540,0.0
548,0.0
8,1527200.48060316
467,0.0
504,0.0
555,0.0
2,1, 1, 1, 0,23,30.00,60.00,Wednesday
540,0.0
548,0.0
8,1527200.48060316
467,0.0
504,0.0
555,0.0
2,1, 1, 1, 0,23, 0.00,60.00,Wednesday
168,16.368640335090779
173,16.368640335090779
175,16.440927049800988
180,16.440927049800988
542,0.0
550,0.0
9,3054400.96120632
15,1921329425.176063
468,0.0
505,0.0
556,0.0
2,1, 1, 1, 0,24, 0.00,30.00,Wednesday
540,0.0
548,0.0
8,1527200.48060316
467,0.0
504,0.0
555,0.0
2,1, 1, 1, 0,24,30.00,60.00,Wednesday
540,0.0
548,0.0
8,1527200.48060316
467,0.0
504,0.0
555,0.0
2,1, 1, 1, 0,24, 0.00,60.00,Wednesday
168,15.95324954195214
173,15.95324954195214
175,15.931444230162147
180,15.931444230162147
542,0.0
550,0.0
9,3054400.96120632
15,1924383826.1372696
468,0.0
505,0.0
556,0.0
3,1, 1, 1, 0,Wednesday
169,19.729284459500574,14.919354340216917, 5,60,22.59444028454904,17,60
176,19.657450331402207,14.493487636055053, 5,60,22.441320731943219,17,60
541,0.0,0.0, 1,30,0.0, 1,30
549,0.0,0.0, 1,30,0.0, 1,30
10,1924383826.1372696,1527200.48060316, 1,30,76423313.21399999, 8,30
469,656781566.0258068,0.0, 1,30,142538247.68106408, 6,30
506,0.0,0.0, 1,30,0.0, 1,30
557,0.0,0.0, 1,30,0.0, 1,30
2,2, 1, 2, 0, 1, 0.00,30.00,Thursday
540,0.0
548,0.0
8,1527200.48060316
467,0.0
504,0.0
555,0.0
2,2, 1, 2, 0, 1,30.00,60.00,Thursday
540,0.0
548,0.0
8,1527200.48060316
467,0.0
504,0.0
555,0.0
2,2, 1, 2, 0, 1, 0.00,60.00,Thursday
168,15.550954144022898
173,15.550954144022898
175,15.437393714356661
180,15.437393714356661
542,0.0
550,0.0
9,3054400.96120632
15,1927438227.098476
468,0.0
505,0.0
556,0.0
2,2, 1, 2, 0, 2, 0.00,30.00,Thursday
540,0.0
548,0.0
8,1527200.48060316
467,0.0
504,0.0
555,0.0
2,2, 1, 2, 0, 2,30.00,60.00,Thursday
540,0.0
548,0.0
8,1527200.48060316
467,0.0
504,0.0
555,0.0
2,2, 1, 2, 0, 2, 0.00,60.00,Thursday
168,15.199758157603114
173,15.199758157603114
175,14.997763558799753
180,14.997763558799753
542,0.0
550,0.0
9,3054400.96120632
15,1930492628.0596824
468,0.0
505,0.0
556,0.0
2,2, 1, 2, 0, 3, 0.00,30.00,Thursday
540,0.0
548,0.0
8,1527200.48060316
467,0.0
504,0.0
555,0.0
2,2, 1, 2, 0, 3,30.00,60.00,Thursday
540,0.0
548,0.0
8,1527200.48060316
467,0.0
504,0.0
555,0.0
2,2, 1, 2, 0, 3, 0.00,60.00,Thursday
168,14.882214145118562
173,14.882214145118562
175,14.593131165167958
180,14.593131165167958
542,0.0
550,0.0
9,3054400.96120632
15,1933547029.0208889
468,0.0
505,0.0
556,0.0
2,2, 1, 2, 0, 4, 0.00,30.00,Thursday
540,0.0
548,0.0
8,1527200.48060316
467,0.0
504,0.0
555,0.0
2,2, 1, 2, 0, 4,30.00,60.00,Thursday
540,0.0
548,0.0
8,1527200.48060316
467,0.0
504,0.0
555,0.0
2,2, 1, 2, 0, 4, 0.00,60.00,Thursday
168,14.571953505742954
173,14.571953505742954
175,14.200384125364759
180,14.200384125364759
542,0.0
550,0.0
9,3054400.96120632
15,1936601429.9820953
468,0.0
505,0.0
556,0.0
2,2, 1, 2, 0, 5, 0.00,30.00,Thursday
540,0.0
548,0.0
8,1527200.48060316
467,0.0
504,0.0
555,0.0
2,2, 1, 2, 0, 5,30.00,60.00,Thursday
540,0.0
548,0.0
8,1527200.48060316
467,0.0
504,0.0
555,0.0
2,2, 1, 2, 0, 5, 0.00,60.00,Thursday
168,14.290832069731753
173,14.290832069731753
175,13.841762794645888
180,13.841762794645888
542,0.0
550,0.0
9,3054400.96120632
15,1939655830.9433017
468,0.0
505,0.0
556,0.0
2,2, 1, 2, 0, 6, 0.00,30.00,Thursday
540,0.0
548,0.0
8,1527200.48060316
467,159547683.17764325
504,0.0
555,0.0
2,2, 1, 2, 0, 6,30.00,60.00,Thursday
540,0.0
548,0.0
8,1527200.48060316
467,125546043.43220413
504,0.0
555,0.0
2,2, 1, 2, 0, 6, 0.00,60.00,Thursday
168,21.561547142529486
173,21.561547142529486
175,21.516217704916437
180,21.516217704916437
542,0.0
550,0.0
9,3054400.96120632
15,1942710231.904508
468,285093726.60984739
505,0.0
556,0.0
2,2, 1, 2, 0, 7, 0.00,30.00,Thursday
540,0.0
548,0.0
8,1527200.48060316
467,116060122.30244228
504,0.0
555,0.0
2,2, 1, 2, 0, 7,30.00,60.00,Thursday
540,0.0
548,0.0
8,1527200.48060316
467,105214244.17616618
504,0.0
555,0.0
2,2, 1, 2, 0, 7, 0.00,60.00,Thursday
168,21.999965985435489
173,21.999965985435489
175,21.999931056372277
180,21.999931056372277
542,0.0
550,0.0
9,3054400.96120632
15,1945764632.8657146
468,221274366.47860847
505,0.0
556,0.0
2,2, 1, 2, 0, 8, 0.00,30.00,Thursday
167,21.99999828845737
174,21.99999576145776
540,0.0
548,0.0
8,76423313.21399999
467,52896928.757877249
504,0.0
555,0.0
2,2, 1, 2, 0, 8,30.00,60.00,Thursday
167,21.9999997931023
174,21.999999410726184
540,0.0
548,0.0
8,76423313.21399999
467,47160887.30152741
504,0.0
555,0.0
2,2, 1, 2, 0, 8, 0.00,60.00,Thursday
168,21.999999040779835
173,21.999999040779835
175,21.999997586091973
180,21.999997586091973
542,0.0
550,0.0
9,152846626.42799998
15,2098611259.2937146
468,100057816.05940466
505,0.0
556,0.0
2,2, 1, 2, 0, 9, 0.00,30.00,Thursday
167,21.999999978744368
174,21.999999929778757
540,0.0
548,0.0
8,76423313.21399999
467,38937935.5744447
504,0.0
555,0.0
2,2, 1, 2, 0, 9,30.00,60.00,Thursday
167,21.99999999799397
174,21.99999999234018
540,0.0
548,0.0
8,76423313.21399999
467,34949652.562122229
504,0.0
555,0.0
2,2, 1, 2, 0, 9, 0.00,60.00,Thursday
168,21.99999998836917
173,21.99999998836917
175,21.999999961059467
180,21.999999961059467
542,0.0
550,0.0
9,152846626.42799998
15,2251457885.721714
468,73887588.13656692
505,0.0
556,0.0
2,2, 1, 2, 0,10, 0.00,30.00,Thursday
167,21.99999999986855
174,21.99999999938895
540,0.0
548,0.0
8,76423313.21399999
467,23943277.620728956
504,0.0
555,0.0
2,2, 1, 2, 0,10,30.00,60.00,Thursday
167,21.999999999992533
174,21.99999999995711
540,0.0
548,0.0
8,76423313.21399999
467,20555992.626601869
504,0.0
555,0.0
2,2, 1, 2, 0,10, 0.00,60.00,Thursday
168,21.99999999993054
173,21.99999999993054
175,21.99999999967303
180,21.99999999967303
542,0.0
550,0.0
9,152846626.42799998
15,2404304512.1497137
468,44499270.24733082
505,0.0
556,0.0
2,2, 1, 2, 0,11, 0.00,30.00,Thursday
167,21.999999999999685
174,21.999999999997429
540,0.0
548,0.0
8,76423313.21399999
467,17273033.072508415
504,0.0
555,0.0
2,2, 1, 2, 0,11,30.00,60.00,Thursday
167,22.000000000000047
174,21.999999999999916
540,0.0
548,0.0
8,76423313.21399999
467,14231487.593816385
504,0.0
555,0.0
2,2, 1, 2, 0,11, 0.00,60.00,Thursday
168,21.999999999999866
173,21.999999999999866
175,21.99999999999867
180,21.99999999999867
542,0.0
550,0.0
9,152846626.42799998
15,2557151138.577713
468,31504520.666324799
505,0.0
556,0.0
2,2, 1, 2, 0,12, 0.00,30.00,Thursday
167,22.000000000000015
174,22.000000000000015
540,0.0
548,0.0
8,76423313.21399999
467,11363600.4265447
504,0.0
555,0.0
2,2, 1, 2, 0,12,30.00,60.00,Thursday
167,22.0
174,22.0
540,0.0
548,0.0
8,76423313.21399999
467,8663516.786920974
504,0.0
555,0.0
2,2, 1, 2, 0,12, 0.00,60.00,Thursday
168,22.000000000000008
173,22.000000000000008
175,22.000000000000008
180,22.000000000000008
542,0.0
550,0.0
9,152846626.42799998
15,2709997765.0057127
468,20027117.213465677
505,0.0
556,0.0
2,2, 1, 2, 0,13, 0.00,30.00,Thursday
167,22.000000000000026
174,21.999999999999969
540,0.0
548,0.0
8,76423313.21399999
467,9830989.25310058
504,0.0
555,0.0
2,2, 1, 2, 0,13,30.00,60.00,Thursday
167,22.00000000000002
174,21.999999999999987
540,0.0
548,0.0
8,76423313.21399999
467,7498103.976121279
504,0.0
555,0.0
2,2, 1, 2, 0,13, 0.00,60.00,Thursday
168,22.00000000000002
173,22.00000000000002
175,21.99999999999998
180,21.99999999999998
542,0.0
550,0.0
9,152846626.42799998
15,2862844391.433712
468,17329093.229221859
505,0.0
556,0.0
2,2, 1, 2, 0,14, 0.00,30.00,Thursday
167,22.0
174,21.999999999999994
540,0.0
548,0.0
8,76423313.21399999
467,6593077.673487265
504,0.0
555,0.0
2,2, 1, 2, 0,14,30.00,60.00,Thursday
167,21.999999999999987
174,21.999999999999994
540,0.0
548,0.0
8,76423313.21399999
467,5821811.9845062
504,0.0
555,0.0
2,2, 1, 2, 0,14, 0.00,60.00,Thursday
168,21.999999999999994
173,21.999999999999994
175,21.999999999999994
180,21.999999999999994
542,0.0
550,0.0
9,152846626.42799998
15,3015691017.8617117
468,12414889.657993466
505,0.0
556,0.0
2,2, 1, 2, 0,15, 0.00,30.00,Thursday
167,21.999999999999998
174,21.999999999999994
540,0.0
548,0.0
8,76423313.21399999
467,1457503.3207222319
504,0.0
555,0.0
2,2, 1, 2, 0,15,30.00,60.00,Thursday
167,22.021372442955586
174,22.000000000000005
540,0.0
548,0.0
8,76423313.21399999
467,1042442.3400705983
504,0.0
555,0.0
2,2, 1, 2, 0,15, 0.00,60.00,Thursday
168,22.01068622147779
173,22.01068622147779
175,22.0
180,22.0
542,0.0
550,0.0
9,152846626.42799998
15,3168537644.289711
468,2499945.6607928306
505,0.0
556,0.0
2,2, 1, 2, 0,16, 0.00,30.00,Thursday
167,22.05959935515715
174,22.0
540,0.0
548,0.0
8,76423313.21399999
467,761461.4614204954
504,0.0
555,0.0
2,2, 1, 2, 0,16,30.00,60.00,Thursday
167,22.098049749535308
174,21.999999999999994
540,0.0
548,0.0
8,76423313.21399999
467,529211.7604867441
504,0.0
555,0.0
2,2, 1, 2, 0,16, 0.00,60.00,Thursday
168,22.078824552346228
173,22.078824552346228
175,21.999999999999998
180,21.999999999999998
542,0.0
550,0.0
9,152846626.42799998
15,3321384270.7177107
468,1290673.2219072395
505,0.0
556,0.0
2,2, 1, 2, 0,17, 0.00,30.00,Thursday
167,22.12965660221438
174,22.000000000000005
540,0.0
548,0.0
8,76423313.21399999
467,338446.45401165159
504,0.0
555,0.0
2,2, 1, 2, 0,17,30.00,60.00,Thursday
167,22.155906888249285
174,22.000000000000005
540,0.0
548,0.0
8,76423313.21399999
467,183688.4303947768
504,0.0
555,0.0
2,2, 1, 2, 0,17, 0.00,60.00,Thursday
168,22.14278174523183
173,22.14278174523183
175,22.000000000000005
180,22.000000000000005
542,0.0
550,0.0
9,152846626.42799998
15,3474230897.14571
468,522134.8844064284
505,0.0
556,0.0
2,2, 1, 2, 0,18, 0.00,30.00,Thursday
167,22.002118333617444
174,22.000000000000026
540,0.0
548,0.0
8,76423313.21399999
467,5603552.466364608
504,0.0
555,0.0
2,2, 1, 2, 0,18,30.00,60.00,Thursday
167,22.000047739582869
174,22.000000000000026
540,0.0
548,0.0
8,76423313.21399999
467,6806605.416554756
504,0.0
555,0.0
2,2, 1, 2, 0,18, 0.00,60.00,Thursday
168,22.001083036600158
173,22.001083036600158
175,22.000000000000026
180,22.000000000000026
542,0.0
550,0.0
9,152846626.42799998
15,3627077523.5737097
468,12410157.882919364
505,0.0
556,0.0
2,2, 1, 2, 0,19, 0.00,30.00,Thursday
167,22.000001497037954
174,21.999999999999998
540,0.0
548,0.0
8,76423313.21399999
467,9869923.16338779
504,0.0
555,0.0
2,2, 1, 2, 0,19,30.00,60.00,Thursday
167,22.000000049230679
174,21.999999999999998
540,0.0
548,0.0
8,76423313.21399999
467,10142946.796802812
504,0.0
555,0.0
2,2, 1, 2, 0,19, 0.00,60.00,Thursday
168,22.000000773134319
173,22.000000773134319
175,21.999999999999998
180,21.999999999999998
542,0.0
550,0.0
9,152846626.42799998
15,3779924150.001709
468,20012869.9601906
505,0.0
556,0.0
2,2, 1, 2, 0,20, 0.00,30.00,Thursday
540,0.0
548,0.0
8,28312949.213999999
467,0.0
504,0.0
555,0.0
2,2, 1, 2, 0,20,30.00,60.00,Thursday
540,0.0
548,0.0
8,28312949.213999999
467,0.0
504,0.0
555,0.0
2,2, 1, 2, 0,20, 0.00,60.00,Thursday
168,19.76505644332149
173,19.76505644332149
175,19.720658638600289
180,19.720658638600289
542,0.0
550,0.0
9,56625898.427999999
15,3836550048.4297096
468,0.0
505,0.0
556,0.0
2,2, 1, 2, 0,21, 0.00,30.00,Thursday
540,0.0
548,0.0
8,1527200.48060316
467,0.0
504,0.0
555,0.0
2,2, 1, 2, 0,21,30.00,60.00,Thursday
540,0.0
548,0.0
8,1527200.48060316
467,0.0
504,0.0
555,0.0
2,2, 1, 2, 0,21, 0.00,60.00,Thursday
168,17.425116632788624
173,17.425116632788624
175,17.487305813942855
180,17.487305813942855
542,0.0
550,0.0
9,3054400.96120632
15,3839604449.390916
468,0.0
505,0.0
556,0.0
2,2, 1, 2, 0,22, 0.00,30.00,Thursday
540,0.0
548,0.0
8,1527200.48060316
467,0.0
504,0.0
555,0.0
2,2, 1, 2, 0,22,30.00,60.00,Thursday
540,0.0
548,0.0
8,1527200.48060316
467,0.0
504,0.0
555,0.0
2,2, 1, 2, 0,22, 0.00,60.00,Thursday
168,16.530713332958507
173,16.530713332958507
175,16.62114150891202
180,16.62114150891202
542,0.0
550,0.0
9,3054400.96120632
15,3842658850.3521225
468,0.0
505,0.0
556,0.0
2,2, 1, 2, 0,23, 0.00,30.00,Thursday
540,0.0
548,0.0
8,1527200.48060316
467,0.0
504,0.0
555,0.0
2,2, 1, 2, 0,23,30.00,60.00,Thursday
540,0.0
548,0.0
8,1527200.48060316
467,0.0
504,0.0
555,0.0
2,2, 1, 2, 0,23, 0.00,60.00,Thursday
168,15.938800617455286
173,15.938800617455286
175,15.96489586969125
180,15.96489586969125
542,0.0
550,0.0
9,3054400.96120632
15,3845713251.3133289
468,0.0
505,0.0
556,0.0
2,2, 1, 2, 0,24, 0.00,30.00,Thursday
540,0.0
548,0.0
8,1527200.48060316
467,0.0
504,0.0
555,0.0
2,2, 1, 2, 0,24,30.00,60.00,Thursday
540,0.0
548,0.0
8,1527200.48060316
467,0.0
504,0.0
555,0.0
2,2, 1, 2, 0,24, 0.00,60.00,Thursday
168,15.668814351517089
173,15.668814351517089
175,15.596944689055413
180,15.596944689055413
542,0.0
550,0.0
9,3054400.96120632
15,3848767652.274535
468,0.0
505,0.0
556,0.0
3,2, 1, 2, 0,Thursday
169,19.48412924525396,14.225699614773453, 5,60,22.155906888249285,17,60
176,19.41573034111036,13.757753005064103, 5,60,22.000000000000026,18,30
541,0.0,0.0, 1,30,0.0, 1,30
549,0.0,0.0, 1,30,0.0, 1,30
10,1924383826.1372696,1527200.48060316, 1,30,76423313.21399999, 8,30
469,842824169.9089806,0.0, 1,30,159547683.17764325, 6,30
506,0.0,0.0, 1,30,0.0, 1,30
557,0.0,0.0, 1,30,0.0, 1,30
2,3, 1, 3, 0, 1, 0.00,30.00,Friday
540,0.0
548,0.0
8,1527200.48060316
467,0.0
504,0.0
555,0.0
2,3, 1, 3, 0, 1,30.00,60.00,Friday
540,0.0
548,0.0
8,1527200.48060316
467,0.0
504,0.0
555,0.0
2,3, 1, 3, 0, 1, 0.00,60.00,Friday
168,15.357649190389722
173,15.357649190389722
175,15.190366740199952
180,15.190366740199952
542,0.0
550,0.0
9,3054400.96120632
15,3851822053.2357418
468,0.0
505,0.0
556,0.0
2,3, 1, 3, 0, 2, 0.00,30.00,Friday
540,0.0
548,0.0
8,1527200.48060316
467,0.0
504,0.0
555,0.0
2,3, 1, 3, 0, 2,30.00,60.00,Friday
540,0.0
548,0.0
8,1527200.48060316
467,0.0
504,0.0
555,0.0
2,3, 1, 3, 0, 2, 0.00,60.00,Friday
168,15.041403205995732
173,15.041403205995732
175,14.787216090033388
180,14.787216090033388
542,0.0
550,0.0
9,3054400.96120632
15,3854876454.196948
468,0.0
505,0.0
556,0.0
2,3, 1, 3, 0, 3, 0.00,30.00,Friday
540,0.0
548,0.0
8,1527200.48060316
467,0.0
504,0.0
555,0.0
2,3, 1, 3, 0, 3,30.00,60.00,Friday
540,0.0
548,0.0
8,1527200.48060316
467,0.0
504,0.0
555,0.0
2,3, 1, 3, 0, 3, 0.00,60.00,Friday
168,14.705165441609017
173,14.705165441609017
175,14.371813208962184
180,14.371813208962184
542,0.0
550,0.0
9,3054400.96120632
15,3857930855.1581547
468,0.0
505,0.0
556,0.0
2,3, 1, 3, 0, 4, 0.00,30.00,Friday
540,0.0
548,0.0
8,1527200.48060316
467,0.0
504,0.0
555,0.0
2,3, 1, 3, 0, 4,30.00,60.00,Friday
540,0.0
548,0.0
8,1527200.48060316
467,0.0
504,0.0
555,0.0
2,3, 1, 3, 0, 4, 0.00,60.00,Friday
168,14.377379664019589
173,14.377379664019589
175,13.971051673452543
180,13.971051673452543
542,0.0
550,0.0
9,3054400.96120632
15,3860985256.119361
468,0.0
505,0.0
556,0.0