Program Version,EnergyPlus, Version 9.2.0-921312fa1d, YMD=2020.11.13 15:34
1,5,Environment Title[],Latitude[deg],Longitude[deg],Time Zone[],Elevation[m]
2,8,Day of Simulation[],Month[],Day of Month[],DST Indicator[1=yes 0=no],Hour[],StartMinute[],EndMinute[],DayType
3,5,Cumulative Day of Simulation[],Month[],Day of Month[],DST Indicator[1=yes 0=no],DayType  ! When Daily Report Variables Requested
4,2,Cumulative Days of Simulation[],Month[]  ! When Monthly Report Variables Requested
5,1,Cumulative Days of Simulation[] ! When Run Period Report Variables Requested
6,1,Calendar Year of Simulation[] ! When Annual Report Variables Requested
167,1,BLOCK1:ZONE1,Zone Mean Air Temperature [C] !TimeStep,OFFICE_OPENOFF_OCC
168,1,BLOCK1:ZONE1,Zone Mean Air Temperature [C] !Hourly,ON
169,7,BLOCK1:ZONE1,Zone Mean Air Temperature [C] !Daily [Value,Min,Hour,Minute,Max,Hour,Minute],ON
170,9,BLOCK1:ZONE1,Zone Mean Air Temperature [C] !Monthly [Value,Min,Day,Hour,Minute,Max,Day,Hour,Minute],ON
171,11,BLOCK1:ZONE1,Zone Mean Air Temperature [C] !Annual [Value,Min,Month,Day,Hour,Minute,Max,Month,Day,Hour,Minute],ON
172,11,BLOCK1:ZONE1,Zone Mean Air Temperature [C] !RunPeriod [Value,Min,Month,Day,Hour,Minute,Max,Month,Day,Hour,Minute],ON
173,1,BLOCK1:ZONE1,Zone Mean Air Temperature [C] !Hourly
174,1,BLOCK2:ZONE1,Zone Mean Air Temperature [C] !TimeStep,OFFICE_OPENOFF_OCC
175,1,BLOCK2:ZONE1,Zone Mean Air Temperature [C] !Hourly,ON
176,7,BLOCK2:ZONE1,Zone Mean Air Temperature [C] !Daily [Value,Min,Hour,Minute,Max,Hour,Minute],ON
177,9,BLOCK2:ZONE1,Zone Mean Air Temperature [C] !Monthly [Value,Min,Day,Hour,Minute,Max,Day,Hour,Minute],ON
178,11,BLOCK2:ZONE1,Zone Mean Air Temperature [C] !Annual [Value,Min,Month,Day,Hour,Minute,Max,Month,Day,Hour,Minute],ON
179,11,BLOCK2:ZONE1,Zone Mean Air Temperature [C] !RunPeriod [Value,Min,Month,Day,Hour,Minute,Max,Month,Day,Hour,Minute],ON
180,1,BLOCK2:ZONE1,Zone Mean Air Temperature [C] !Hourly
540,1,BLOCK1:ZONE1 IDEAL LOADS AIR,Zone Ideal Loads Supply Air Total Cooling Rate [W] !TimeStep
541,7,BLOCK1:ZONE1 IDEAL LOADS AIR,Zone Ideal Loads Supply Air Total Cooling Rate [W] !Daily [Value,Min,Hour,Minute,Max,Hour,Minute]
542,1,BLOCK1:ZONE1 IDEAL LOADS AIR,Zone Ideal Loads Supply Air Total Cooling Rate [W] !Hourly
543,9,BLOCK1:ZONE1 IDEAL LOADS AIR,Zone Ideal Loads Supply Air Total Cooling Rate [W] !Monthly [Value,Min,Day,Hour,Minute,Max,Day,Hour,Minute]
544,11,BLOCK1:ZONE1 IDEAL LOADS AIR,Zone Ideal Loads Supply Air Total Cooling Rate [W] !RunPeriod [Value,Min,Month,Day,Hour,Minute,Max,Month,Day,Hour,Minute]
545,11,BLOCK1:ZONE1 IDEAL LOADS AIR,Zone Ideal Loads Supply Air Total Cooling Rate [W] !Annual [Value,Min,Month,Day,Hour,Minute,Max,Month,Day,Hour,Minute]
548,1,BLOCK2:ZONE1 IDEAL LOADS AIR,Zone Ideal Loads Supply Air Total Cooling Rate [W] !TimeStep
549,7,BLOCK2:ZONE1 IDEAL LOADS AIR,Zone Ideal Loads Supply Air Total Cooling Rate [W] !Daily [Value,Min,Hour,Minute,Max,Hour,Minute]
550,1,BLOCK2:ZONE1 IDEAL LOADS AIR,Zone Ideal Loads Supply Air Total Cooling Rate [W] !Hourly
551,9,BLOCK2:ZONE1 IDEAL LOADS AIR,Zone Ideal Loads Supply Air Total Cooling Rate [W] !Monthly [Value,Min,Day,Hour,Minute,Max,Day,Hour,Minute]
552,11,BLOCK2:ZONE1 IDEAL LOADS AIR,Zone Ideal Loads Supply Air Total Cooling Rate [W] !RunPeriod [Value,Min,Month,Day,Hour,Minute,Max,Month,Day,Hour,Minute]
553,11,BLOCK2:ZONE1 IDEAL LOADS AIR,Zone Ideal Loads Supply Air Total Cooling Rate [W] !Annual [Value,Min,Month,Day,Hour,Minute,Max,Month,Day,Hour,Minute]
8,1,Electricity:Facility [J] !TimeStep
10,7,Electricity:Facility [J] !Daily [Value,Min,Hour,Minute,Max,Hour,Minute]
11,9,Electricity:Facility [J] !Monthly [Value,Min,Day,Hour,Minute,Max,Day,Hour,Minute]
13,11,Electricity:Facility [J] !RunPeriod [Value,Min,Month,Day,Hour,Minute,Max,Month,Day,Hour,Minute]
12,11,Electricity:Facility [J] !Annual [Value,Min,Month,Day,Hour,Minute,Max,Month,Day,Hour,Minute]
9,1,Electricity:Facility [J] !Hourly
15,1,Cumulative Electricity:Facility [J] !Hourly
505,1,DistrictCooling:Facility [J] !Hourly
468,1,DistrictHeating:Facility [J] !Hourly
556,1,Carbon Equivalent:Facility [kg] !Hourly
506,7,DistrictCooling:Facility [J] !Daily [Value,Min,Hour,Minute,Max,Hour,Minute]
469,7,DistrictHeating:Facility [J] !Daily [Value,Min,Hour,Minute,Max,Hour,Minute]
557,7,Carbon Equivalent:Facility [kg] !Daily [Value,Min,Hour,Minute,Max,Hour,Minute]
507,9,DistrictCooling:Facility [J] !Monthly [Value,Min,Day,Hour,Minute,Max,Day,Hour,Minute]
470,9,DistrictHeating:Facility [J] !Monthly [Value,Min,Day,Hour,Minute,Max,Day,Hour,Minute]
558,9,Carbon Equivalent:Facility [kg] !Monthly [Value,Min,Day,Hour,Minute,Max,Day,Hour,Minute]
509,11,DistrictCooling:Facility [J] !RunPeriod [Value,Min,Month,Day,Hour,Minute,Max,Month,Day,Hour,Minute]
472,11,DistrictHeating:Facility [J] !RunPeriod [Value,Min,Month,Day,Hour,Minute,Max,Month,Day,Hour,Minute]
560,11,Carbon Equivalent:Facility [kg] !RunPeriod [Value,Min,Month,Day,Hour,Minute,Max,Month,Day,Hour,Minute]
504,1,DistrictCooling:Facility [J] !TimeStep
467,1,DistrictHeating:Facility [J] !TimeStep
555,1,Carbon Equivalent:Facility [kg] !TimeStep
End of Data Dictionary
1,SUMMER DESIGN DAY IN UNTITLED (01-01:31-12) JUL,  51.15,  -0.18,   0.00,  62.00
2,1, 7,15, 1, 1, 0.00,30.00,SummerDesignDay
540,0.0
548,0.0
8,2794393.0785623437
467,0.0
504,0.0
555,0.0
2,1, 7,15, 1, 1,30.00,60.00,SummerDesignDay
540,0.0
548,0.0
8,2515181.137746017
467,0.0
504,0.0
555,0.0
2,1, 7,15, 1, 1, 0.00,60.00,SummerDesignDay
168,26.312397574875424
173,26.312397574875424
175,26.427345564860056
180,26.427345564860056
542,0.0
550,0.0
9,5309574.216308361
15,5309574.216308361
468,0.0
505,0.0
556,0.0
2,1, 7,15, 1, 2, 0.00,30.00,SummerDesignDay
540,0.0
548,0.0
8,2638678.7198888745
467,0.0
504,0.0
555,0.0
2,1, 7,15, 1, 2,30.00,60.00,SummerDesignDay
540,0.0
548,0.0
8,2389893.7448888744
467,0.0
504,0.0
555,0.0
2,1, 7,15, 1, 2, 0.00,60.00,SummerDesignDay
168,26.05072030741563
173,26.05072030741563
175,26.01220304316045
180,26.01220304316045
542,0.0
550,0.0
9,5028572.464777749
15,10338146.68108611
468,0.0
505,0.0
556,0.0
2,1, 7,15, 1, 3, 0.00,30.00,SummerDesignDay
540,0.0
548,0.0
8,2416383.0720317319
467,0.0
504,0.0
555,0.0
2,1, 7,15, 1, 3,30.00,60.00,SummerDesignDay
540,0.0
548,0.0
8,2266038.20060316
467,0.0
504,0.0
555,0.0
2,1, 7,15, 1, 3, 0.00,60.00,SummerDesignDay
168,25.832832364456097
173,25.832832364456097
175,25.88555389959954
180,25.88555389959954
542,0.0
550,0.0
9,4682421.272634892
15,15020567.953721002
468,0.0
505,0.0
556,0.0
2,1, 7,15, 1, 4, 0.00,30.00,SummerDesignDay
540,0.0
548,0.0
8,2119988.874888874
467,0.0
504,0.0
555,0.0
2,1, 7,15, 1, 4,30.00,60.00,SummerDesignDay
540,0.0
548,0.0
8,1969644.003460303
467,0.0
504,0.0
555,0.0
2,1, 7,15, 1, 4, 0.00,60.00,SummerDesignDay
168,26.08631716349053
173,26.08631716349053
175,25.88321271787779
180,25.88321271787779
542,0.0
550,0.0
9,4089632.878349177
15,19110200.83207018
468,0.0
505,0.0
556,0.0
2,1, 7,15, 1, 5, 0.00,30.00,SummerDesignDay
540,0.0
548,0.0
8,1950620.762235813
467,0.0
504,0.0
555,0.0
2,1, 7,15, 1, 5,30.00,60.00,SummerDesignDay
540,0.0
548,0.0
8,2058009.956113364
467,0.0
504,0.0
555,0.0
2,1, 7,15, 1, 5, 0.00,60.00,SummerDesignDay
168,25.771140794911884
173,25.771140794911884
175,25.846943115070009
180,25.846943115070009
542,0.0
550,0.0
9,4008630.7183491776
15,23118831.550419358
468,0.0
505,0.0
556,0.0
2,1, 7,15, 1, 6, 0.00,30.00,SummerDesignDay
540,0.0
548,0.0
8,2119988.8748888748
467,0.0
504,0.0
555,0.0
2,1, 7,15, 1, 6,30.00,60.00,SummerDesignDay
540,0.0
548,0.0
8,1823594.6777460173
467,0.0
504,0.0
555,0.0
2,1, 7,15, 1, 6, 0.00,60.00,SummerDesignDay
168,26.0195143996146
173,26.0195143996146
175,25.761546550417685
180,25.761546550417685
542,0.0
550,0.0
9,3943583.552634892
15,27062415.103054249
468,0.0
505,0.0
556,0.0
2,1, 7,15, 1, 7, 0.00,30.00,SummerDesignDay
167,26.05539245367364
174,25.77415801229159
540,0.0
548,0.0
8,77905284.19971428
467,0.0
504,0.0
555,0.0
2,1, 7,15, 1, 7,30.00,60.00,SummerDesignDay
167,26.362892708480449
174,26.387860972304475
540,0.0
548,0.0
8,77838898.1425714
467,0.0
504,0.0
555,0.0
2,1, 7,15, 1, 7, 0.00,60.00,SummerDesignDay
168,26.209142581077047
173,26.209142581077047
175,26.08100949229803
180,26.08100949229803
542,0.0
550,0.0
9,155744182.3422857
15,182806597.44533993
468,0.0
505,0.0
556,0.0
2,1, 7,15, 1, 8, 0.00,30.00,SummerDesignDay
167,26.968790973716535
174,26.809328332155006
540,0.0
548,0.0
8,77905284.19971428
467,0.0
504,0.0
555,0.0
2,1, 7,15, 1, 8,30.00,60.00,SummerDesignDay
167,27.651657497991978
174,27.476290522771678
540,0.0
548,0.0
8,77905284.19971428
467,0.0
504,0.0
555,0.0
2,1, 7,15, 1, 8, 0.00,60.00,SummerDesignDay
168,27.310224235854258
173,27.310224235854258
175,27.14280942746334
180,27.14280942746334
542,0.0
550,0.0
9,155810568.39942856
15,338617165.84476849
468,0.0
505,0.0
556,0.0
2,1, 7,15, 1, 9, 0.00,30.00,SummerDesignDay
167,28.469307606940285
174,28.347255064249369
540,0.0
548,0.0
8,77905284.19971428
467,0.0
504,0.0
555,0.0
2,1, 7,15, 1, 9,30.00,60.00,SummerDesignDay
167,29.185405305615299
174,29.104180674069377
540,0.0
548,0.0
8,77905284.19971428
467,0.0
504,0.0
555,0.0
2,1, 7,15, 1, 9, 0.00,60.00,SummerDesignDay
168,28.82735645627779
173,28.82735645627779
175,28.72571786915937
180,28.72571786915937
542,0.0
550,0.0
9,155810568.39942856
15,494427734.244197
468,0.0
505,0.0
556,0.0
2,1, 7,15, 1,10, 0.00,30.00,SummerDesignDay
167,30.011951296512437
174,29.990894244345016
540,0.0
548,0.0
8,77905284.19971428
467,0.0
504,0.0
555,0.0
2,1, 7,15, 1,10,30.00,60.00,SummerDesignDay
167,30.71393731786476
174,30.758158469897319
540,0.0
548,0.0
8,77905284.19971428
467,0.0
504,0.0
555,0.0
2,1, 7,15, 1,10, 0.00,60.00,SummerDesignDay
168,30.3629443071886
173,30.3629443071886
175,30.374526357121167
180,30.374526357121167
542,0.0
550,0.0
9,155810568.39942856
15,650238302.6436256
468,0.0
505,0.0
556,0.0
2,1, 7,15, 1,11, 0.00,30.00,SummerDesignDay
167,31.3677327884305
174,31.484289601213253
540,0.0
548,0.0
8,77905284.19971428
467,0.0
504,0.0
555,0.0
2,1, 7,15, 1,11,30.00,60.00,SummerDesignDay
167,32.008649188152599
174,32.20197467286302
540,0.0
548,0.0
8,77905284.19971428
467,0.0
504,0.0
555,0.0
2,1, 7,15, 1,11, 0.00,60.00,SummerDesignDay
168,31.68819098829155
173,31.68819098829155
175,31.843132137038134
180,31.843132137038134
542,0.0
550,0.0
9,155810568.39942856
15,806048871.0430542
468,0.0
505,0.0
556,0.0
2,1, 7,15, 1,12, 0.00,30.00,SummerDesignDay
167,32.34769150448169
174,32.604707955710278
540,0.0
548,0.0
8,77905284.19971428
467,0.0
504,0.0
555,0.0
2,1, 7,15, 1,12,30.00,60.00,SummerDesignDay
167,32.944004108216677
174,33.3028764799368
540,0.0
548,0.0
8,77905284.19971428
467,0.0
504,0.0
555,0.0
2,1, 7,15, 1,12, 0.00,60.00,SummerDesignDay
168,32.64584780634918
173,32.64584780634918
175,32.95379221782353
180,32.95379221782353
542,0.0
550,0.0
9,155810568.39942856
15,961859439.4424828
468,0.0
505,0.0
556,0.0
2,1, 7,15, 1,13, 0.00,30.00,SummerDesignDay
167,33.36564828855859
174,33.7969866286778
540,0.0
548,0.0
8,77905284.19971428
467,0.0
504,0.0
555,0.0
2,1, 7,15, 1,13,30.00,60.00,SummerDesignDay
167,33.787517944553048
174,34.27894251884978
540,0.0
548,0.0
8,77905284.19971428
467,0.0
504,0.0
555,0.0
2,1, 7,15, 1,13, 0.00,60.00,SummerDesignDay
168,33.57658311655582
173,33.57658311655582
175,34.03796457376379
180,34.03796457376379
542,0.0
550,0.0
9,155810568.39942856
15,1117670007.8419114
468,0.0
505,0.0
556,0.0
2,1, 7,15, 1,14, 0.00,30.00,SummerDesignDay
167,34.16522732705113
174,34.69872289293076
540,0.0
548,0.0
8,77905284.19971428
467,0.0
504,0.0
555,0.0
2,1, 7,15, 1,14,30.00,60.00,SummerDesignDay
167,34.485486814100287
174,35.05669698946909
540,0.0
548,0.0
8,77905284.19971428
467,0.0
504,0.0
555,0.0
2,1, 7,15, 1,14, 0.00,60.00,SummerDesignDay
168,34.325357070575709
173,34.325357070575709
175,34.877709941199928
180,34.877709941199928
542,0.0
550,0.0
9,155810568.39942856
15,1273480576.2413398
468,0.0
505,0.0
556,0.0
2,1, 7,15, 1,15, 0.00,30.00,SummerDesignDay
167,34.6595143168144
174,35.269575391856687
540,0.0
548,0.0
8,77905284.19971428
467,0.0
504,0.0
555,0.0
2,1, 7,15, 1,15,30.00,60.00,SummerDesignDay
167,34.77037138819434
174,35.424962510290047
540,0.0
548,0.0
8,77905284.19971428
467,0.0
504,0.0
555,0.0
2,1, 7,15, 1,15, 0.00,60.00,SummerDesignDay
168,34.71494285250437
173,34.71494285250437
175,35.34726895107336
180,35.34726895107336
542,0.0
550,0.0
9,155810568.39942856
15,1429291144.640768
468,0.0
505,0.0
556,0.0
2,1, 7,15, 1,16, 0.00,30.00,SummerDesignDay
167,34.71384277606881
174,35.414372223457117
540,0.0
548,0.0
8,77905284.19971428
467,0.0
504,0.0
555,0.0
2,1, 7,15, 1,16,30.00,60.00,SummerDesignDay
167,34.57668884444975
174,35.322657659980738
540,0.0
548,0.0
8,77905284.19971428
467,0.0
504,0.0
555,0.0
2,1, 7,15, 1,16, 0.00,60.00,SummerDesignDay
168,34.645265810259278
173,34.645265810259278
175,35.36851494171893
180,35.36851494171893
542,0.0
550,0.0
9,155810568.39942856
15,1585101713.0401965
468,0.0
505,0.0
556,0.0
2,1, 7,15, 1,17, 0.00,30.00,SummerDesignDay
167,34.35463475336432
174,35.17022742125442
540,0.0
548,0.0
8,77905284.19971428
467,0.0
504,0.0
555,0.0
2,1, 7,15, 1,17,30.00,60.00,SummerDesignDay
167,34.136204830612317
174,35.004181178961939
540,0.0
548,0.0
8,77905284.19971428
467,0.0
504,0.0
555,0.0
2,1, 7,15, 1,17, 0.00,60.00,SummerDesignDay
168,34.24541979198832
173,34.24541979198832
175,35.087204300108179
180,35.087204300108179
542,0.0
550,0.0
9,155810568.39942856
15,1740912281.4396249
468,0.0
505,0.0
556,0.0
2,1, 7,15, 1,18, 0.00,30.00,SummerDesignDay
167,33.875500952913139
174,34.77814296556712
540,0.0
548,0.0
8,77905284.19971428
467,0.0
504,0.0
555,0.0
2,1, 7,15, 1,18,30.00,60.00,SummerDesignDay
167,33.598552166415348
174,34.51652171754403
540,0.0
548,0.0
8,77905284.19971428
467,0.0
504,0.0
555,0.0
2,1, 7,15, 1,18, 0.00,60.00,SummerDesignDay
168,33.737026559664247
173,33.737026559664247
175,34.647332341555578
180,34.647332341555578
542,0.0
550,0.0
9,155810568.39942856
15,1896722849.8390532
468,0.0
505,0.0
556,0.0
2,1, 7,15, 1,19, 0.00,30.00,SummerDesignDay
540,0.0
548,0.0
8,29794920.199714286
467,0.0
504,0.0
555,0.0
2,1, 7,15, 1,19,30.00,60.00,SummerDesignDay
540,0.0
548,0.0
8,29794920.199714286
467,0.0
504,0.0
555,0.0
2,1, 7,15, 1,19, 0.00,60.00,SummerDesignDay
168,32.055627887272269
173,32.055627887272269
175,33.05603039086006
180,33.05603039086006
542,0.0
550,0.0
9,59589840.39942857
15,1956312690.2384816
468,0.0
505,0.0
556,0.0
2,1, 7,15, 1,20, 0.00,30.00,SummerDesignDay
540,0.0
548,0.0
8,3009171.4663174457
467,0.0
504,0.0
555,0.0
2,1, 7,15, 1,20,30.00,60.00,SummerDesignDay
540,0.0
548,0.0
8,3009171.466317446
467,0.0
504,0.0
555,0.0
2,1, 7,15, 1,20, 0.00,60.00,SummerDesignDay
168,29.96342369688884
173,29.96342369688884
175,31.07146401667587
180,31.07146401667587
542,0.0
550,0.0
9,6018342.932634892
15,1962331033.1711164
468,0.0
505,0.0
556,0.0
2,1, 7,15, 1,21, 0.00,30.00,SummerDesignDay
540,0.0
548,0.0
8,3009171.466317446
467,0.0
504,0.0
555,0.0
2,1, 7,15, 1,21,30.00,60.00,SummerDesignDay
540,0.0
548,0.0
8,3009171.4663174457
467,0.0
504,0.0
555,0.0
2,1, 7,15, 1,21, 0.00,60.00,SummerDesignDay
168,28.76591303468
173,28.76591303468
175,29.831850230897474
180,29.831850230897474
542,0.0
550,0.0
9,6018342.932634892
15,1968349376.1037513
468,0.0
505,0.0
556,0.0
2,1, 7,15, 1,22, 0.00,30.00,SummerDesignDay
540,0.0
548,0.0
8,3009171.4663174466
467,0.0
504,0.0
555,0.0
2,1, 7,15, 1,22,30.00,60.00,SummerDesignDay
540,0.0
548,0.0
8,3009171.466317446
467,0.0
504,0.0
555,0.0
2,1, 7,15, 1,22, 0.00,60.00,SummerDesignDay
168,27.828767269219548
173,27.828767269219548
175,28.742229881622398
180,28.742229881622398
542,0.0
550,0.0
9,6018342.932634892
15,1974367719.036386
468,0.0
505,0.0
556,0.0
2,1, 7,15, 1,23, 0.00,30.00,SummerDesignDay
540,0.0
548,0.0
8,3009171.466317446
467,0.0
504,0.0
555,0.0
2,1, 7,15, 1,23,30.00,60.00,SummerDesignDay
540,0.0
548,0.0
8,3009171.466317446
467,0.0
504,0.0
555,0.0
2,1, 7,15, 1,23, 0.00,60.00,SummerDesignDay
168,26.97513208032128
173,26.97513208032128
175,27.733081450202837
180,27.733081450202837
542,0.0
550,0.0
9,6018342.932634892
15,1980386061.9690209
468,0.0
505,0.0
556,0.0
2,1, 7,15, 1,24, 0.00,30.00,SummerDesignDay
540,0.0
548,0.0
8,3009171.466317446
467,0.0
504,0.0
555,0.0
2,1, 7,15, 1,24,30.00,60.00,SummerDesignDay
540,0.0
548,0.0
8,3009171.466317446
467,0.0
504,0.0
555,0.0
2,1, 7,15, 1,24, 0.00,60.00,SummerDesignDay
168,26.193558605524424
173,26.193558605524424
175,26.81458953166342
180,26.81458953166342
542,0.0
550,0.0
9,6018342.932634892
15,1986404404.9016557
468,0.0
505,0.0
556,0.0
3,1, 7,15, 1,SummerDesignDay
169,29.589318614802364,25.73971807114816, 5,60,34.77037138819434,15,60
176,29.981376372634619,25.72031721266928, 4,30,35.424962510290047,15,60
541,0.0,0.0, 1, 4,0.0, 1, 4
549,0.0,0.0, 1, 4,0.0, 1, 4
10,1986404404.9016557,1823594.6777460173, 6,60,77905284.19971428, 7,30
469,0.0,0.0, 1,30,0.0, 1,30
506,0.0,0.0, 1,30,0.0, 1,30
557,0.0,0.0, 1,30,0.0, 1,30
4,1, 7
170,29.589318614802364,25.73971807114816,15, 5,60,34.77037138819434,15,15,60
177,29.981376372634619,25.72031721266928,15, 4,30,35.424962510290047,15,15,60
543,0.0,0.0,15, 1, 4,0.0,15, 1, 4
551,0.0,0.0,15, 1, 4,0.0,15, 1, 4
11,1986404404.9016557,1823594.6777460173,15, 6,60,77905284.19971428,15, 7,30
470,0.0,0.0,15, 1,30,0.0,15, 1,30
507,0.0,0.0,15, 1,30,0.0,15, 1,30
558,0.0,0.0,15, 1,30,0.0,15, 1,30
5,1
172,29.589318614802364,25.73971807114816, 7,15, 5,60,34.77037138819434, 7,15,15,60
179,29.981376372634619,25.72031721266928, 7,15, 4,30,35.424962510290047, 7,15,15,60
544,0.0,0.0, 7,15, 1, 4,0.0, 7,15, 1, 4
552,0.0,0.0, 7,15, 1, 4,0.0, 7,15, 1, 4
13,1986404404.9016557,1823594.6777460173, 7,15, 6,60,77905284.19971428, 7,15, 7,30
472,0.0,0.0, 7,15, 1,30,0.0, 7,15, 1,30
509,0.0,0.0, 7,15, 1,30,0.0, 7,15, 1,30
560,0.0,0.0, 7,15, 1,30,0.0, 7,15, 1,30
1,SUMMER DESIGN DAY IN UNTITLED (01-01:31-12) AUG,  51.15,  -0.18,   0.00,  62.00
2,1, 8,15, 1, 1, 0.00,30.00,SummerDesignDay
540,0.0
548,0.0
8,3009171.466317446
467,0.0
504,0.0
555,0.0
2,1, 8,15, 1, 1,30.00,60.00,SummerDesignDay
540,0.0
548,0.0
8,2690072.131623568
467,0.0
504,0.0
555,0.0
2,1, 8,15, 1, 1, 0.00,60.00,SummerDesignDay
168,26.141655507295746
173,26.141655507295746
175,26.38323127168764
180,26.38323127168764
542,0.0
550,0.0
9,5699243.597941014
15,5699243.597941014
468,0.0
505,0.0
556,0.0
2,1, 8,15, 1, 2, 0.00,30.00,SummerDesignDay
540,0.0
548,0.0
8,2515181.137746017
467,0.0
504,0.0
555,0.0
2,1, 8,15, 1, 2,30.00,60.00,SummerDesignDay
540,0.0
548,0.0
8,2638678.7198888745
467,0.0
504,0.0
555,0.0
2,1, 8,15, 1, 2, 0.00,60.00,SummerDesignDay
168,26.102589363560889
173,26.102589363560889
175,26.30966366830762
180,26.30966366830762
542,0.0
550,0.0
9,5153859.857634891
15,10853103.455575906
468,0.0
505,0.0
556,0.0
2,1, 8,15, 1, 3, 0.00,30.00,SummerDesignDay
540,0.0
548,0.0
8,2389893.7448888744
467,0.0
504,0.0
555,0.0
2,1, 8,15, 1, 3,30.00,60.00,SummerDesignDay
540,0.0
548,0.0
8,2416383.0720317319
467,0.0
504,0.0
555,0.0
2,1, 8,15, 1, 3, 0.00,60.00,SummerDesignDay
168,26.12210009486681
173,26.12210009486681
175,25.988507622684158
180,25.988507622684158
542,0.0
550,0.0
9,4806276.816920606
15,15659380.27249651
468,0.0
505,0.0
556,0.0
2,1, 8,15, 1, 4, 0.00,30.00,SummerDesignDay
540,0.0
548,0.0
8,2266038.20060316
467,0.0
504,0.0
555,0.0
2,1, 8,15, 1, 4,30.00,60.00,SummerDesignDay
540,0.0
548,0.0
8,2119988.8748888748
467,0.0
504,0.0
555,0.0
2,1, 8,15, 1, 4, 0.00,60.00,SummerDesignDay
168,25.876322552614348
173,25.876322552614348
175,25.78618164886646
180,25.78618164886646
542,0.0
550,0.0
9,4386027.075492035
15,20045407.347988547
468,0.0
505,0.0
556,0.0
2,1, 8,15, 1, 5, 0.00,30.00,SummerDesignDay
540,0.0
548,0.0
8,2119988.8748888748
467,0.0
504,0.0
555,0.0
2,1, 8,15, 1, 5,30.00,60.00,SummerDesignDay
540,0.0
548,0.0
8,1897693.2270317316
467,0.0
504,0.0
555,0.0
2,1, 8,15, 1, 5, 0.00,60.00,SummerDesignDay
168,26.023506003951373
173,26.023506003951373
175,26.00920261324471
180,26.00920261324471
542,0.0
550,0.0
9,4017682.101920606
15,24063089.44990915
468,0.0
505,0.0
556,0.0
2,1, 8,15, 1, 6, 0.00,30.00,SummerDesignDay
540,0.0
548,0.0
8,2021190.8091745887
467,0.0
504,0.0
555,0.0
2,1, 8,15, 1, 6,30.00,60.00,SummerDesignDay
540,0.0
548,0.0
8,1897693.2270317316
467,0.0
504,0.0
555,0.0
2,1, 8,15, 1, 6, 0.00,60.00,SummerDesignDay
168,25.941120375916538
173,25.941120375916538
175,25.77778303645767
180,25.77778303645767
542,0.0
550,0.0
9,3918884.03620632
15,27981973.48611547
468,0.0
505,0.0
556,0.0
2,1, 8,15, 1, 7, 0.00,30.00,SummerDesignDay
167,26.177573425806366
174,25.914639159557117
540,0.0
548,0.0
8,77905284.19971428
467,0.0
504,0.0
555,0.0
2,1, 8,15, 1, 7,30.00,60.00,SummerDesignDay
167,26.51915324179236
174,26.500073069882935
540,0.0
548,0.0
8,77838898.1425714
467,0.0
504,0.0
555,0.0
2,1, 8,15, 1, 7, 0.00,60.00,SummerDesignDay
168,26.348363333799364
173,26.348363333799364
175,26.207356114720026
180,26.207356114720026
542,0.0
550,0.0
9,155744182.3422857
15,183726155.82840116
468,0.0
505,0.0
556,0.0
2,1, 8,15, 1, 8, 0.00,30.00,SummerDesignDay
167,27.172739269716418
174,26.942369891680323
540,0.0
548,0.0
8,77905284.19971428
467,0.0
504,0.0
555,0.0
2,1, 8,15, 1, 8,30.00,60.00,SummerDesignDay
167,27.90951738918463
174,27.629537891565606
540,0.0
548,0.0
8,77905284.19971428
467,0.0
504,0.0
555,0.0
2,1, 8,15, 1, 8, 0.00,60.00,SummerDesignDay
168,27.541128329450524
173,27.541128329450524
175,27.285953891622964
180,27.285953891622964
542,0.0
550,0.0
9,155810568.39942856
15,339536724.2278297
468,0.0
505,0.0
556,0.0
2,1, 8,15, 1, 9, 0.00,30.00,SummerDesignDay
167,28.763032943419966
174,28.51866174270615
540,0.0
548,0.0
8,77905284.19971428
467,0.0
504,0.0
555,0.0
2,1, 8,15, 1, 9,30.00,60.00,SummerDesignDay
167,29.64244667098272
174,29.430323682166376
540,0.0
548,0.0
8,77905284.19971428
467,0.0
504,0.0
555,0.0
2,1, 8,15, 1, 9, 0.00,60.00,SummerDesignDay
168,29.202739807201345
173,29.202739807201345
175,28.974492712436264
180,28.974492712436264
542,0.0
550,0.0
9,155810568.39942856
15,495347292.6272583
468,0.0
505,0.0
556,0.0
2,1, 8,15, 1,10, 0.00,30.00,SummerDesignDay
167,30.291867464377537
174,30.118437139151749
540,0.0
548,0.0
8,77905284.19971428
467,0.0
504,0.0
555,0.0
2,1, 8,15, 1,10,30.00,60.00,SummerDesignDay
167,31.128230870510025
174,31.02058989342377
540,0.0
548,0.0
8,77905284.19971428
467,0.0
504,0.0
555,0.0
2,1, 8,15, 1,10, 0.00,60.00,SummerDesignDay
168,30.710049167443779
173,30.710049167443779
175,30.56951351628776
180,30.56951351628776
542,0.0
550,0.0
9,155810568.39942856
15,651157861.0266869
468,0.0
505,0.0
556,0.0
2,1, 8,15, 1,11, 0.00,30.00,SummerDesignDay
167,31.809906482126445
174,31.774118313586976
540,0.0
548,0.0
8,77905284.19971428
467,0.0
504,0.0
555,0.0
2,1, 8,15, 1,11,30.00,60.00,SummerDesignDay
167,32.48076684730819
174,32.52319191612787
540,0.0
548,0.0
8,77905284.19971428
467,0.0
504,0.0
555,0.0
2,1, 8,15, 1,11, 0.00,60.00,SummerDesignDay
168,32.14533666471732
173,32.14533666471732
175,32.14865511485742
180,32.14865511485742
542,0.0
550,0.0
9,155810568.39942856
15,806968429.4261155
468,0.0
505,0.0
556,0.0
2,1, 8,15, 1,12, 0.00,30.00,SummerDesignDay
167,32.84191837356222
174,32.94267639925311
540,0.0
548,0.0
8,77905284.19971428
467,0.0
504,0.0
555,0.0
2,1, 8,15, 1,12,30.00,60.00,SummerDesignDay
167,33.34250117817575
174,33.54219036029677
540,0.0
548,0.0
8,77905284.19971428
467,0.0
504,0.0
555,0.0
2,1, 8,15, 1,12, 0.00,60.00,SummerDesignDay
168,33.09220977586899
173,33.09220977586899
175,33.24243337977494
180,33.24243337977494
542,0.0
550,0.0
9,155810568.39942856
15,962778997.8255441
468,0.0
505,0.0
556,0.0
2,1, 8,15, 1,13, 0.00,30.00,SummerDesignDay
167,33.87575650811851
174,34.176152645635337
540,0.0
548,0.0
8,77905284.19971428
467,0.0
504,0.0
555,0.0
2,1, 8,15, 1,13,30.00,60.00,SummerDesignDay
167,34.21977832070925
174,34.55448724483096
540,0.0
548,0.0
8,77905284.19971428
467,0.0
504,0.0
555,0.0
2,1, 8,15, 1,13, 0.00,60.00,SummerDesignDay
168,34.04776741441388
173,34.04776741441388
175,34.365319945233149
180,34.365319945233149
542,0.0
550,0.0
9,155810568.39942856
15,1118589566.2249728
468,0.0
505,0.0
556,0.0
2,1, 8,15, 1,14, 0.00,30.00,SummerDesignDay
167,34.69791144812278
174,35.111301486594047
540,0.0
548,0.0
8,77905284.19971428
467,0.0
504,0.0
555,0.0
2,1, 8,15, 1,14,30.00,60.00,SummerDesignDay
167,35.011146505446607
174,35.46025619966365
540,0.0
548,0.0
8,77905284.19971428
467,0.0
504,0.0
555,0.0
2,1, 8,15, 1,14, 0.00,60.00,SummerDesignDay
168,34.85452897678469
173,34.85452897678469
175,35.285778843128849
180,35.285778843128849
542,0.0
550,0.0
9,155810568.39942856
15,1274400134.624401
468,0.0
505,0.0
556,0.0
2,1, 8,15, 1,15, 0.00,30.00,SummerDesignDay
167,35.17555159213648
174,35.671553478664687
540,0.0
548,0.0
8,77905284.19971428
467,0.0
504,0.0
555,0.0
2,1, 8,15, 1,15,30.00,60.00,SummerDesignDay
167,35.29034274254683
174,35.84188408477687
540,0.0
548,0.0
8,77905284.19971428
467,0.0
504,0.0
555,0.0
2,1, 8,15, 1,15, 0.00,60.00,SummerDesignDay
168,35.23294716734165
173,35.23294716734165
175,35.75671878172078
180,35.75671878172078
542,0.0
550,0.0
9,155810568.39942856
15,1430210703.0238295
468,0.0
505,0.0
556,0.0
2,1, 8,15, 1,16, 0.00,30.00,SummerDesignDay
167,35.232351631037278
174,35.844375508760119
540,0.0
548,0.0
8,77905284.19971428
467,0.0
504,0.0
555,0.0
2,1, 8,15, 1,16,30.00,60.00,SummerDesignDay
167,35.08253111109042
174,35.75134955930127
540,0.0
548,0.0
8,77905284.19971428
467,0.0
504,0.0
555,0.0
2,1, 8,15, 1,16, 0.00,60.00,SummerDesignDay
168,35.15744137106385
173,35.15744137106385
175,35.79786253403069
180,35.79786253403069
542,0.0
550,0.0
9,155810568.39942856
15,1586021271.4232579
468,0.0
505,0.0
556,0.0
2,1, 8,15, 1,17, 0.00,30.00,SummerDesignDay
167,34.84962229725284
174,35.586214530371538
540,0.0
548,0.0
8,77905284.19971428
467,0.0
504,0.0
555,0.0
2,1, 8,15, 1,17,30.00,60.00,SummerDesignDay
167,34.59531845773715
174,35.393243090870459
540,0.0
548,0.0
8,77905284.19971428
467,0.0
504,0.0
555,0.0
2,1, 8,15, 1,17, 0.00,60.00,SummerDesignDay
168,34.722470377495
173,34.722470377495
175,35.489728810620999
180,35.489728810620999
542,0.0
550,0.0
9,155810568.39942856
15,1741831839.8226863
468,0.0
505,0.0
556,0.0
2,1, 8,15, 1,18, 0.00,30.00,SummerDesignDay
167,34.32573761142821
174,35.16220541675577
540,0.0
548,0.0
8,77905284.19971428
467,0.0
504,0.0
555,0.0
2,1, 8,15, 1,18,30.00,60.00,SummerDesignDay
167,33.940563394902458
174,34.825026844903778
540,0.0
548,0.0
8,77905284.19971428
467,0.0
504,0.0
555,0.0
2,1, 8,15, 1,18, 0.00,60.00,SummerDesignDay
168,34.13315050316533
173,34.13315050316533
175,34.99361613082977
180,34.99361613082977
542,0.0
550,0.0
9,155810568.39942856
15,1897642408.2221146
468,0.0
505,0.0
556,0.0
2,1, 8,15, 1,19, 0.00,30.00,SummerDesignDay
540,0.0
548,0.0
8,29794920.199714286
467,0.0
504,0.0
555,0.0
2,1, 8,15, 1,19,30.00,60.00,SummerDesignDay
540,0.0
548,0.0
8,29794920.199714286
467,0.0
504,0.0
555,0.0
2,1, 8,15, 1,19, 0.00,60.00,SummerDesignDay
168,32.256578988921919
173,32.256578988921919
175,33.25644097660056
180,33.25644097660056
542,0.0
550,0.0
9,59589840.39942857
15,1957232248.621543
468,0.0
505,0.0
556,0.0
2,1, 8,15, 1,20, 0.00,30.00,SummerDesignDay
540,0.0
548,0.0
8,3009171.466317446
467,0.0
504,0.0
555,0.0
2,1, 8,15, 1,20,30.00,60.00,SummerDesignDay
540,0.0
548,0.0
8,3009171.466317446
467,0.0
504,0.0
555,0.0
2,1, 8,15, 1,20, 0.00,60.00,SummerDesignDay
168,30.175252990225105
173,30.175252990225105
175,31.241095765982729
180,31.241095765982729
542,0.0
550,0.0
9,6018342.932634892
15,1963250591.5541778
468,0.0
505,0.0
556,0.0
2,1, 8,15, 1,21, 0.00,30.00,SummerDesignDay
540,0.0
548,0.0
8,3009171.4663174457
467,0.0
504,0.0
555,0.0
2,1, 8,15, 1,21,30.00,60.00,SummerDesignDay
540,0.0
548,0.0
8,3009171.466317446
467,0.0
504,0.0
555,0.0
2,1, 8,15, 1,21, 0.00,60.00,SummerDesignDay
168,29.05182748008678
173,29.05182748008678
175,30.034862368554238
180,30.034862368554238
542,0.0
550,0.0
9,6018342.932634892
15,1969268934.4868127
468,0.0
505,0.0
556,0.0
2,1, 8,15, 1,22, 0.00,30.00,SummerDesignDay
540,0.0
548,0.0
8,3009171.466317446
467,0.0
504,0.0
555,0.0
2,1, 8,15, 1,22,30.00,60.00,SummerDesignDay
540,0.0
548,0.0
8,3009171.466317446
467,0.0
504,0.0
555,0.0
2,1, 8,15, 1,22, 0.00,60.00,SummerDesignDay
168,28.10850183150798
173,28.10850183150798
175,28.940029314097953
180,28.940029314097953
542,0.0
550,0.0
9,6018342.932634892
15,1975287277.4194475
468,0.0
505,0.0
556,0.0
2,1, 8,15, 1,23, 0.00,30.00,SummerDesignDay
540,0.0
548,0.0
8,3009171.466317446
467,0.0
504,0.0
555,0.0
2,1, 8,15, 1,23,30.00,60.00,SummerDesignDay
540,0.0
548,0.0
8,3009171.466317446
467,0.0
504,0.0
555,0.0
2,1, 8,15, 1,23, 0.00,60.00,SummerDesignDay
168,27.301518260833285
173,27.301518260833285
175,27.99860058348903
180,27.99860058348903
542,0.0
550,0.0
9,6018342.932634892
15,1981305620.3520823
468,0.0
505,0.0
556,0.0
2,1, 8,15, 1,24, 0.00,30.00,SummerDesignDay
540,0.0
548,0.0
8,3009171.466317446
467,0.0
504,0.0
555,0.0
2,1, 8,15, 1,24,30.00,60.00,SummerDesignDay
540,0.0
548,0.0
8,3009171.4663174466
467,0.0
504,0.0
555,0.0
2,1, 8,15, 1,24, 0.00,60.00,SummerDesignDay
168,26.533825642119664
173,26.533825642119664
175,27.10935106123243
180,27.10935106123243
542,0.0
550,0.0
9,6018342.932634892
15,1987323963.284717
468,0.0
505,0.0
556,0.0
3,1, 8,15, 1,SummerDesignDay
169,29.867622165860256,25.818505743095519, 4,30,35.29034274254683,15,60
176,30.206349154436209,25.707656491852796, 6,30,35.844375508760119,16,30
541,0.0,0.0, 1,15,0.0, 1,15
549,0.0,0.0, 1,15,0.0, 1,15
10,1987323963.284717,1897693.2270317316, 5,60,77905284.19971428, 7,30
469,0.0,0.0, 1,30,0.0, 1,30
506,0.0,0.0, 1,30,0.0, 1,30
557,0.0,0.0, 1,30,0.0, 1,30
4,1, 8
170,29.867622165860256,25.818505743095519,15, 4,30,35.29034274254683,15,15,60
177,30.206349154436209,25.707656491852796,15, 6,30,35.844375508760119,15,16,30
543,0.0,0.0,15, 1,15,0.0,15, 1,15
551,0.0,0.0,15, 1,15,0.0,15, 1,15
11,1987323963.284717,1897693.2270317316,15, 5,60,77905284.19971428,15, 7,30
470,0.0,0.0,15, 1,30,0.0,15, 1,30
507,0.0,0.0,15, 1,30,0.0,15, 1,30
558,0.0,0.0,15, 1,30,0.0,15, 1,30
5,1
172,29.867622165860256,25.818505743095519, 8,15, 4,30,35.29034274254683, 8,15,15,60