Program Version,EnergyPlus, Version 8.9.0-40101eaafd, YMD=2020.10.20 08:28
1,5,Environment Title[],Latitude[deg],Longitude[deg],Time Zone[],Elevation[m]
2,8,Day of Simulation[],Month[],Day of Month[],DST Indicator[1=yes 0=no],Hour[],StartMinute[],EndMinute[],DayType
3,5,Cumulative Day of Simulation[],Month[],Day of Month[],DST Indicator[1=yes 0=no],DayType  ! When Daily Report Variables Requested
4,2,Cumulative Days of Simulation[],Month[]  ! When Monthly Report Variables Requested
5,1,Cumulative Days of Simulation[] ! When Run Period Report Variables Requested
6,1,Calendar Year of Simulation[] ! When Annual Report Variables Requested
7,9,Environment,Site Outdoor Air Drybulb Temperature [C] !Monthly [Value,Min,Day,Hour,Minute,Max,Day,Hour,Minute]
8,11,Environment,Site Outdoor Air Drybulb Temperature [C] !RunPeriod [Value,Min,Month,Day,Hour,Minute,Max,Month,Day,Hour,Minute]
9,9,Environment,Site Outdoor Air Dewpoint Temperature [C] !Monthly [Value,Min,Day,Hour,Minute,Max,Day,Hour,Minute]
10,11,Environment,Site Outdoor Air Dewpoint Temperature [C] !RunPeriod [Value,Min,Month,Day,Hour,Minute,Max,Month,Day,Hour,Minute]
11,9,Environment,Site Outdoor Air Barometric Pressure [Pa] !Monthly [Value,Min,Day,Hour,Minute,Max,Day,Hour,Minute]
12,11,Environment,Site Outdoor Air Barometric Pressure [Pa] !RunPeriod [Value,Min,Month,Day,Hour,Minute,Max,Month,Day,Hour,Minute]
13,9,Environment,Site Wind Speed [m/s] !Monthly [Value,Min,Day,Hour,Minute,Max,Day,Hour,Minute]
14,11,Environment,Site Wind Speed [m/s] !RunPeriod [Value,Min,Month,Day,Hour,Minute,Max,Month,Day,Hour,Minute]
15,9,Environment,Site Wind Direction [deg] !Monthly [Value,Min,Day,Hour,Minute,Max,Day,Hour,Minute]
16,11,Environment,Site Wind Direction [deg] !RunPeriod [Value,Min,Month,Day,Hour,Minute,Max,Month,Day,Hour,Minute]
17,9,Environment,Site Diffuse Solar Radiation Rate per Area [W/m2] !Monthly [Value,Min,Day,Hour,Minute,Max,Day,Hour,Minute]
18,11,Environment,Site Diffuse Solar Radiation Rate per Area [W/m2] !RunPeriod [Value,Min,Month,Day,Hour,Minute,Max,Month,Day,Hour,Minute]
19,9,Environment,Site Direct Solar Radiation Rate per Area [W/m2] !Monthly [Value,Min,Day,Hour,Minute,Max,Day,Hour,Minute]
20,11,Environment,Site Direct Solar Radiation Rate per Area [W/m2] !RunPeriod [Value,Min,Month,Day,Hour,Minute,Max,Month,Day,Hour,Minute]
21,9,Environment,Site Solar Azimuth Angle [deg] !Monthly [Value,Min,Day,Hour,Minute,Max,Day,Hour,Minute]
22,11,Environment,Site Solar Azimuth Angle [deg] !RunPeriod [Value,Min,Month,Day,Hour,Minute,Max,Month,Day,Hour,Minute]
23,9,Environment,Site Solar Altitude Angle [deg] !Monthly [Value,Min,Day,Hour,Minute,Max,Day,Hour,Minute]
24,11,Environment,Site Solar Altitude Angle [deg] !RunPeriod [Value,Min,Month,Day,Hour,Minute,Max,Month,Day,Hour,Minute]
135,9,BLOCK1:ZONE1,Zone Mean Radiant Temperature [C] !Monthly [Value,Min,Day,Hour,Minute,Max,Day,Hour,Minute],ON
136,11,BLOCK1:ZONE1,Zone Mean Radiant Temperature [C] !RunPeriod [Value,Min,Month,Day,Hour,Minute,Max,Month,Day,Hour,Minute],ON
137,9,BLOCK1:ZONE1,Zone Mean Air Temperature [C] !Monthly [Value,Min,Day,Hour,Minute,Max,Day,Hour,Minute],ON
138,11,BLOCK1:ZONE1,Zone Mean Air Temperature [C] !RunPeriod [Value,Min,Month,Day,Hour,Minute,Max,Month,Day,Hour,Minute],ON
139,9,BLOCK1:ZONE1,Zone Operative Temperature [C] !Monthly [Value,Min,Day,Hour,Minute,Max,Day,Hour,Minute],ON
140,11,BLOCK1:ZONE1,Zone Operative Temperature [C] !RunPeriod [Value,Min,Month,Day,Hour,Minute,Max,Month,Day,Hour,Minute],ON
141,9,BLOCK1:ZONE1,Zone Infiltration Air Change Rate [ach] !Monthly [Value,Min,Day,Hour,Minute,Max,Day,Hour,Minute]
142,11,BLOCK1:ZONE1,Zone Infiltration Air Change Rate [ach] !RunPeriod [Value,Min,Month,Day,Hour,Minute,Max,Month,Day,Hour,Minute]
229,9,BLOCK1:ZONE1,Zone Air System Sensible Heating Rate [W] !Monthly [Value,Min,Day,Hour,Minute,Max,Day,Hour,Minute]
230,11,BLOCK1:ZONE1,Zone Air System Sensible Heating Rate [W] !RunPeriod [Value,Min,Month,Day,Hour,Minute,Max,Month,Day,Hour,Minute]
231,9,BLOCK1:ZONE1,Zone Air System Sensible Cooling Rate [W] !Monthly [Value,Min,Day,Hour,Minute,Max,Day,Hour,Minute]
232,11,BLOCK1:ZONE1,Zone Air System Sensible Cooling Rate [W] !RunPeriod [Value,Min,Month,Day,Hour,Minute,Max,Month,Day,Hour,Minute]
233,9,BLOCK1:ZONE1,Zone Air Relative Humidity [%] !Monthly [Value,Min,Day,Hour,Minute,Max,Day,Hour,Minute],ON
234,11,BLOCK1:ZONE1,Zone Air Relative Humidity [%] !RunPeriod [Value,Min,Month,Day,Hour,Minute,Max,Month,Day,Hour,Minute],ON
333,9,DHW BLOCK1:ZONE1,Water Use Equipment Heating Rate [W] !Monthly [Value,Min,Day,Hour,Minute,Max,Day,Hour,Minute]
334,11,DHW BLOCK1:ZONE1,Water Use Equipment Heating Rate [W] !RunPeriod [Value,Min,Month,Day,Hour,Minute,Max,Month,Day,Hour,Minute]
495,9,Whole Building,Facility Total Produced Electric Energy [J] !Monthly [Value,Min,Day,Hour,Minute,Max,Day,Hour,Minute]
496,11,Whole Building,Facility Total Produced Electric Energy [J] !RunPeriod [Value,Min,Month,Day,Hour,Minute,Max,Month,Day,Hour,Minute]
559,9,BLOCK1:ZONE1 IDEAL LOADS AIR,Zone Ideal Loads Supply Air Total Heating Rate [W] !Monthly [Value,Min,Day,Hour,Minute,Max,Day,Hour,Minute]
560,11,BLOCK1:ZONE1 IDEAL LOADS AIR,Zone Ideal Loads Supply Air Total Heating Rate [W] !RunPeriod [Value,Min,Month,Day,Hour,Minute,Max,Month,Day,Hour,Minute]
561,9,BLOCK1:ZONE1 IDEAL LOADS AIR,Zone Ideal Loads Supply Air Sensible Cooling Rate [W] !Monthly [Value,Min,Day,Hour,Minute,Max,Day,Hour,Minute]
562,11,BLOCK1:ZONE1 IDEAL LOADS AIR,Zone Ideal Loads Supply Air Sensible Cooling Rate [W] !RunPeriod [Value,Min,Month,Day,Hour,Minute,Max,Month,Day,Hour,Minute]
563,9,BLOCK1:ZONE1 IDEAL LOADS AIR,Zone Ideal Loads Supply Air Total Cooling Rate [W] !Monthly [Value,Min,Day,Hour,Minute,Max,Day,Hour,Minute]
564,11,BLOCK1:ZONE1 IDEAL LOADS AIR,Zone Ideal Loads Supply Air Total Cooling Rate [W] !RunPeriod [Value,Min,Month,Day,Hour,Minute,Max,Month,Day,Hour,Minute]
565,9,BLOCK1:ZONE1 IDEAL LOADS AIR,Zone Ideal Loads Heat Recovery Sensible Heating Rate [W] !Monthly [Value,Min,Day,Hour,Minute,Max,Day,Hour,Minute]
566,11,BLOCK1:ZONE1 IDEAL LOADS AIR,Zone Ideal Loads Heat Recovery Sensible Heating Rate [W] !RunPeriod [Value,Min,Month,Day,Hour,Minute,Max,Month,Day,Hour,Minute]
567,9,BLOCK1:ZONE1 IDEAL LOADS AIR,Zone Ideal Loads Heat Recovery Total Heating Rate [W] !Monthly [Value,Min,Day,Hour,Minute,Max,Day,Hour,Minute]
568,11,BLOCK1:ZONE1 IDEAL LOADS AIR,Zone Ideal Loads Heat Recovery Total Heating Rate [W] !RunPeriod [Value,Min,Month,Day,Hour,Minute,Max,Month,Day,Hour,Minute]
569,9,BLOCK1:ZONE1 IDEAL LOADS AIR,Zone Ideal Loads Heat Recovery Sensible Cooling Rate [W] !Monthly [Value,Min,Day,Hour,Minute,Max,Day,Hour,Minute]
570,11,BLOCK1:ZONE1 IDEAL LOADS AIR,Zone Ideal Loads Heat Recovery Sensible Cooling Rate [W] !RunPeriod [Value,Min,Month,Day,Hour,Minute,Max,Month,Day,Hour,Minute]
571,9,BLOCK1:ZONE1 IDEAL LOADS AIR,Zone Ideal Loads Heat Recovery Total Cooling Rate [W] !Monthly [Value,Min,Day,Hour,Minute,Max,Day,Hour,Minute]
572,11,BLOCK1:ZONE1 IDEAL LOADS AIR,Zone Ideal Loads Heat Recovery Total Cooling Rate [W] !RunPeriod [Value,Min,Month,Day,Hour,Minute,Max,Month,Day,Hour,Minute]
29,9,Electricity:Facility [J] !Monthly [Value,Min,Day,Hour,Minute,Max,Day,Hour,Minute]
102,9,InteriorEquipment:Electricity [J] !Monthly [Value,Min,Day,Hour,Minute,Max,Day,Hour,Minute]
65,9,InteriorLights:Electricity [J] !Monthly [Value,Min,Day,Hour,Minute,Max,Day,Hour,Minute]
31,11,Electricity:Facility [J] !RunPeriod [Value,Min,Month,Day,Hour,Minute,Max,Month,Day,Hour,Minute]
104,11,InteriorEquipment:Electricity [J] !RunPeriod [Value,Min,Month,Day,Hour,Minute,Max,Month,Day,Hour,Minute]
67,11,InteriorLights:Electricity [J] !RunPeriod [Value,Min,Month,Day,Hour,Minute,Max,Month,Day,Hour,Minute]
526,9,DistrictCooling:Facility [J] !Monthly [Value,Min,Day,Hour,Minute,Max,Day,Hour,Minute]
339,9,DistrictHeating:Facility [J] !Monthly [Value,Min,Day,Hour,Minute,Max,Day,Hour,Minute]
577,9,Carbon Equivalent:Facility [kg] !Monthly [Value,Min,Day,Hour,Minute,Max,Day,Hour,Minute]
528,11,DistrictCooling:Facility [J] !RunPeriod [Value,Min,Month,Day,Hour,Minute,Max,Month,Day,Hour,Minute]
341,11,DistrictHeating:Facility [J] !RunPeriod [Value,Min,Month,Day,Hour,Minute,Max,Month,Day,Hour,Minute]
579,11,Carbon Equivalent:Facility [kg] !RunPeriod [Value,Min,Month,Day,Hour,Minute,Max,Month,Day,Hour,Minute]
600,9,BLOCK1:ZONE1,Zone Mechanical Ventilation Air Changes per Hour [ach] !Monthly [Value,Min,Day,Hour,Minute,Max,Day,Hour,Minute]
601,11,BLOCK1:ZONE1,Zone Mechanical Ventilation Air Changes per Hour [ach] !RunPeriod [Value,Min,Month,Day,Hour,Minute,Max,Month,Day,Hour,Minute]
End of Data Dictionary
1,UNTITLED (O1-O1:31-12),  51.15,  -0.18,   0.00,  62.00
4,31, 1
7,4.403259408602156,-3.4,14, 7,60,12.0, 2,13,60
9,1.5349798357483216,-4.9,16, 3,60,10.8, 2, 3,60
11,101348.42069892473,98100.0, 8,19,60,103400.0,22,21,60
13,3.738541666666638,0.0, 1, 9,60,12.9, 8,20,60
15,149.10282258064516,0.0, 1, 9,60,355.0,12,13,30
17,19.045026881720433,0.0, 1, 1,30,157.0, 9,12,30
19,42.518481182795699,0.0, 1, 1,30,693.0,21,12,30
21,181.28634052980167,6.835007574111169,31, 1,30,358.00873339530747, 1,24,60
23,-18.167219054979378,-61.930646391037267, 1,24,60,21.196460605021405,31,12,60
135,17.77423406139062,11.782869887946529,28, 6,30,22.29222768201949,15,14,60
137,18.143280286434078,11.999999999999974,27,23,60,22.00000000000014,29,18,30
139,17.958757173912369,11.898327234072294,28, 5,60,22.14611384100977,15,14,60
141,0.7347229277161518,0.7127922802610609, 2, 5,60,0.7657744916484223,14, 7,60
229,650.0388406591002,0.0, 1, 1,15,8561.159222411843,14, 6,59
231,38.330464977241408,0.0, 1, 1,15,870.4308935530516,21,14,30
233,35.87066870246493,16.33282708469813,16, 6,16,65.56614932739129, 2, 5,30
333,34.999513621263158,0.0, 1, 1,15,125.79535330540937, 1,10,30
495,0.0,0.0, 1, 1,15,0.0, 1, 1,15
559,1182.3688804702103,0.0, 1, 1,15,8605.76806007437,10, 6, 2
561,0.0,0.0, 1, 1,15,0.0, 1, 1,15
563,0.0,0.0, 1, 1,15,0.0, 1, 1,15
565,0.0,0.0, 1, 1,15,0.0, 1, 1,15
567,0.0,0.0, 1, 1,15,0.0, 1, 1,15
569,0.0,0.0, 1, 1,15,0.0, 1, 1,15
571,0.0,0.0, 1, 1,15,0.0, 1, 1,15
600,0.32032097890953506,0.0, 1, 1,15,1.1904968857790428, 8,17,60
29,2974681170.409208,101297.898637848, 1, 1,30,5069092.8492, 1, 8,30
65,1761497798.4000169,0.0, 1, 1,30,3191119.2, 1, 8,30
102,1213183372.009287,101297.898637848, 1, 1,30,1877973.6492, 1, 8,30
339,3260599506.734605,0.0, 1, 1,30,15490382.508132659,28, 6,60
526,0.0,0.0, 1, 1,30,0.0, 1, 1,30
577,0.0,0.0, 1, 1,30,0.0, 1, 1,30
4,59, 2
7,3.939769345238096,-4.7,14, 9,60,11.0,27,16,60
9,1.4846725880969714,-9.8,13,24,60,8.6,26,13,60
11,100488.24404761906,98000.0, 3,13,60,102000.0,12, 9,60
13,2.949813988095227,0.0, 2, 4,60,10.3, 1,13,60
15,141.6889880952381,0.0, 2, 4,60,355.0,16,10,30
17,32.32626488095238,0.0, 1, 1,30,224.0,28,13,30
19,50.9140625,0.0, 1, 1,30,790.0,21,13,30
21,180.10348975649934,5.861754539347123,20, 1,30,355.1023562917984,28,24,60
23,-11.3685411978137,-56.03599284254391, 1,24,60,30.552630451475165,28,12,60
135,17.55961782613375,11.990835149618596,25, 6,30,23.500146712561766, 8,14,30
137,17.80426772755506,11.999999999999997,24,14,30,22.70509013939585, 8,14,30
139,17.681942776844396,12.00749145448485,25, 5,60,23.102618425978809, 8,14,30
141,0.7351318758707632,0.7063179385188987, 3,15,60,0.769556406786896,14, 9,60
229,660.3971768928913,0.0, 1, 1,30,8557.19490101087,25, 6,60
231,71.50309978368347,0.0, 1, 1,30,1797.5259479585784, 7,15,15
233,36.95601128308195,11.389104246199464,14, 7,60,70.8632621570225, 3,13,60
333,33.69518392109186,0.0, 1, 1,30,125.79535330540937, 1,10,30
495,0.0,0.0, 1, 1,30,0.0, 1, 1,30
559,1147.1902323268546,0.0, 1, 1,30,8605.768060074211, 4, 6,45
561,0.0,0.0, 1, 1,30,0.0, 1, 1,30
563,0.0,0.0, 1, 1,30,0.0, 1, 1,30
565,0.0,0.0, 1, 1,30,0.0, 1, 1,30
567,0.0,0.0, 1, 1,30,0.0, 1, 1,30
569,0.0,0.0, 1, 1,30,0.0, 1, 1,30
571,0.0,0.0, 1, 1,30,0.0, 1, 1,30
600,0.31071210491809689,0.0, 1, 1,30,1.181197408920745, 4,11,60
29,2591752982.0615446,101297.898637848, 1, 1,30,5069092.8492, 1, 8,30
65,1531737216.0000134,0.0, 1, 1,30,3191119.2, 1, 8,30
102,1060015766.061594,101297.898637848, 1, 1,30,1877973.6492, 1, 8,30
339,2856797998.98703,0.0, 1, 1,30,15490382.50813261,25, 6,60
526,0.0,0.0, 1, 1,30,0.0, 1, 1,30
577,0.0,0.0, 1, 1,30,0.0, 1, 1,30
4,90, 3
7,6.836055107526887,-5.1, 5, 6,60,13.1,24,14,60
9,3.0828292979988984,-11.1, 4,15,60,10.0,19,12,60
11,100462.90322580646,97400.0,16, 7,60,102300.0,10,20,60
13,4.406149193548368,0.0,29,19,60,11.8,24,10,60
15,242.61760752688174,0.0, 4, 5,60,355.0, 4, 8,30
17,62.03965053763441,0.0, 1, 1,30,348.0,23,13,30
19,54.529233870967747,0.0, 1, 1,30,846.0, 4,13,30
21,181.36752116660979,6.017037003737573, 1, 1,30,358.4161900539958,31,24,60
23,-1.7617060124313389,-46.61039963753774, 1,24,60,42.71493002541595,31,12,60
135,18.94000399767229,13.548835093150212, 4, 6,30,23.912430121703719,26,15,30
137,18.768855238087487,12.164731873215219, 4, 5,60,23.483269135582409,26,14,60
139,18.854429617879889,12.896312011380765, 4, 5,60,23.671136892881145,26,14,60
141,0.7298922887553987,0.7137712208533299,24, 9,60,0.7709460096421839, 5, 6,42
229,319.2515249650189,0.0, 1, 1,30,8234.07811562025, 4, 6,33
231,139.57258451095667,0.0, 1, 1,30,1502.2366441109618,26,16,60
233,37.88849516819452,13.440286187411882, 4,15,60,61.733184011131509,24, 9,30
333,31.956077654196795,0.0, 1, 1,30,125.79535330540937, 1,10,30
495,0.0,0.0, 1, 1,30,0.0, 1, 1,30
559,602.1993714043742,0.0, 1, 1,30,8605.768060074266,19, 6, 7
561,0.0,0.0, 1, 1,30,0.0, 1, 1,30
563,0.0,0.0, 1, 1,30,0.0, 1, 1,30
565,0.0,0.0, 1, 1,30,0.0, 1, 1,30
567,0.0,0.0, 1, 1,30,0.0, 1, 1,30
569,0.0,0.0, 1, 1,30,0.0, 1, 1,30
571,0.0,0.0, 1, 1,30,0.0, 1, 1,30
600,0.29491508805625069,0.0, 1, 1,30,1.1923497046315204,15,15,30
29,2729120309.779996,101297.898637848, 1, 1,30,5069092.8492, 1, 8,30
65,1608324076.8000146,0.0, 1, 1,30,3191119.2, 1, 8,30
102,1120796232.9800518,101297.898637848, 1, 1,30,1877973.6492, 1, 8,30
339,1698521954.758482,0.0, 1, 1,30,14446543.636755042, 4, 6,60
526,0.0,0.0, 1, 1,30,0.0, 1, 1,30
577,0.0,0.0, 1, 1,30,0.0, 1, 1,30
4,120, 4
7,8.323645833333329,-3.4,10, 5,60,17.8,18,13,60
9,3.955833327752255,-4.5,24,14,60,13.8,18,19,60
11,100963.40277777778,99700.0,16,14,60,102300.0,13,21,60
13,3.7162152777777517,0.0, 1, 3,60,11.3,12,11,60
15,113.38194444444444,0.0, 1, 3,60,350.0,11,10,30
17,82.49756944444445,0.0, 1, 1,30,420.0,28,11,30
19,116.03055555555555,0.0, 1, 1,30,881.0,24,12,30
21,183.47437344865555,7.583296217199463, 1, 1,30,359.9867522680655,19,24,60
23,8.405703104791842,-34.57568319460591, 1,24,60,53.38574346053382,30,12,60
135,20.8913750195783,14.410782102508069, 1, 5,30,25.91954864710642,12,14,60
137,20.366177935111386,12.726034027423549, 1, 4,60,24.289001004961088,18,19,60
139,20.628776477344855,13.628242163030688, 1, 4,60,24.95977427011291,12,14,60
141,0.7300549057250692,0.7111845507155192, 7,16,60,0.7660835541299133,10, 5,47
229,248.69083295640534,0.0, 1, 1,30,8180.813134822605, 1, 5,33
231,317.21698703866977,0.0, 1, 1,30,2437.1796691955324,11,14,60
233,36.73180664608128,17.38543590279391,10, 6,60,65.66401930086522,16, 4,60
333,34.59372215898764,0.0, 1, 1,30,125.79535330540937, 1, 9,30
495,0.0,0.0, 1, 1,30,0.0, 1, 1,30
559,390.76986800201549,0.0, 1, 1,30,8605.768060074124, 9, 5, 2
561,50.280130762477039,0.0, 1, 1,30,1410.4850305468126,11,14,60
563,51.64341421676799,0.0, 1, 1,30,1410.4850305468126,11,14,60
565,0.0,0.0, 1, 1,30,0.0, 1, 1,30
567,0.0,0.0, 1, 1,30,0.0, 1, 1,30
569,0.0,0.0, 1, 1,30,0.0, 1, 1,30
571,0.0,0.0, 1, 1,30,0.0, 1, 1,30
600,0.3189518712078078,0.0, 1, 1,30,1.1830452290143315,19,15,60
29,2847038440.9599878,101297.898637848, 1, 1,30,5069092.8492, 1, 7,30
65,1684910937.6000157,0.0, 1, 1,30,3191119.2, 1, 7,30
102,1162127503.360057,101297.898637848, 1, 1,30,1877973.6492, 1, 7,30
339,1102542425.6973224,0.0, 1, 1,30,13505959.51910015, 1, 5,60
526,133859729.64986265,0.0, 1, 1,30,2538873.0549842629,11,14,60
577,0.0,0.0, 1, 1,30,0.0, 1, 1,30
4,151, 5
7,12.471538978494625,-0.9, 7, 3,60,24.8,17,13,60
9,7.30863570065466,-5.6, 7,13,60,16.2,16,20,60
11,100716.12903225806,97900.0, 5,20,60,102400.0, 1, 6,60
13,3.4252016129032007,0.0, 1, 1,60,10.3,11,11,60
15,143.25604838709678,0.0, 1, 1,60,355.0,16, 6,30
17,111.5,0.0, 1, 1,30,434.0,12,11,30
19,143.3938172043011,0.0, 1, 1,30,858.0,26,13,30
21,184.39081833504336,7.7333333848140859,31, 1,30,359.5340966199973,31,24,60
23,16.350848762406569,-24.00298348873312, 1,24,60,60.65860017494667,31,12,60
135,22.984006670326523,18.230156888205316, 7, 5,30,27.915287933738694,30,14,30
137,22.038882805699747,16.22155901810561, 7, 4,60,26.570741073170575,30,19,60
139,22.511444738013119,17.30159377823101, 7, 4,60,26.572206958440149,30,19,60
141,0.723615615793122,0.6983186462920644,17,13,60,0.7592582834611239, 7, 5,10
229,103.32051418949327,0.0, 1, 1,30,7661.085102495017, 7, 5, 8
231,603.6645842981097,0.0, 1, 1,30,4335.168048203461,30,14,60
233,41.071711032698789,19.127675849565656, 7,14,30,61.44110087191452,16,23,60
333,34.999513621263158,0.0, 1, 1,30,125.79535330540937, 1, 9,15
495,0.0,0.0, 1, 1,30,0.0, 1, 1,30
559,125.6291031867269,0.0, 1, 1,30,8605.768060074071,24, 5, 3
561,343.7476873248017,0.0, 1, 1,30,4148.215584594957,30,15,30
563,359.33088011714588,0.0, 1, 1,30,4267.251281954685,17,13,60
565,0.0,0.0, 1, 1,30,0.0, 1, 1,30
567,0.0,0.0, 1, 1,30,0.0, 1, 1,30
569,0.0,0.0, 1, 1,30,0.0, 1, 1,30
571,0.0,0.0, 1, 1,30,0.0, 1, 1,30
600,0.32407437456282309,0.0, 1, 1,30,1.1873603798744117,20,16,60
29,2974681170.409219,101297.898637848, 1, 1,30,5069092.8492, 1, 7,30
65,1761497798.4000169,0.0, 1, 1,30,3191119.2, 1, 7,30
102,1213183372.009287,101297.898637848, 1, 1,30,1877973.6492, 1, 7,30
339,430227687.2585216,0.0, 1, 1,30,8934287.563218356, 7, 5,30
526,962431829.3057636,0.0, 1, 1,30,7681052.307518432,17,13,60
577,0.0,0.0, 1, 1,30,0.0, 1, 1,30
4,181, 6
7,15.009756944444444,6.1, 8, 5,60,31.3,30,15,60
9,9.209201388888897,1.1,29,15,60,17.5,18,16,60
11,101192.39583333333,99900.0,17,17,60,102500.0,22, 5,60
13,3.3410069444444239,0.0, 1, 5,60,8.7,28,18,60
15,182.15625,0.0, 1, 1,30,355.0,11,14,30
17,123.04756944444445,0.0, 1, 1,30,459.0,24,11,30
19,113.74305555555556,0.0, 1, 1,30,854.0,29,12,30
21,183.50772659226133,6.20102865211224,30, 1,30,359.9883733948525,11,24,60
23,20.082445087555706,-16.893767244045667, 1,24,60,62.295417171534378,22,12,60
135,24.120625227864406,19.987439188796704,10, 5,30,30.915917220124958,30,15,60
137,23.071623569139729,18.618685399183855,10, 4,60,30.909749312907925,30,15,60
139,23.59612439850205,19.340171206954439,10, 4,60,30.91283326651644,30,15,60
141,0.7197378415434331,0.6901531396549108,28,14,60,0.7358847376863761, 8, 5,60
229,40.14238096084537,0.0, 1, 1,30,7400.664716833451,11, 5, 3
231,630.0165325758642,0.0, 1, 1,30,5263.666274959161,28,14,30
233,42.844136782735919,17.31688935393435,29,16,60,63.04640631749404,17,24,30
333,31.4488383263524,0.0, 1, 1,30,125.79535330540937, 3, 9,30
495,0.0,0.0, 1, 1,30,0.0, 1, 1,30
559,42.0174605966745,0.0, 1, 1,30,8605.768060073935,12, 5, 3
561,417.3794166024189,0.0, 1, 1,30,5773.431078881827,28,14,60
563,454.697321698033,0.0, 1, 1,30,6634.646205203597,28,14,30
565,0.0,0.0, 1, 1,30,0.0, 1, 1,30
567,0.0,0.0, 1, 1,30,0.0, 1, 1,30
569,0.0,0.0, 1, 1,30,0.0, 1, 1,30
571,0.0,0.0, 1, 1,30,0.0, 1, 1,30
600,0.29114846190585316,0.0, 1, 1,30,1.1815481266299655,17,16,60
29,2601477580.33077,101297.898637848, 1, 1,30,5069092.8492, 3, 7,30
65,1531737216.0000134,0.0, 1, 1,30,3191119.2, 3, 7,30
102,1069740364.330829,101297.898637848, 1, 1,30,1877973.6492, 3, 7,30
339,190424646.80848418,0.0, 1, 1,30,4874268.211906501,10, 5,30
526,1178575457.8413015,0.0, 1, 1,30,11942363.169366474,28,14,30
577,0.0,0.0, 1, 1,30,0.0, 1, 1,30
4,212, 7
7,17.314885752688175,9.5,20, 4,60,26.5,23,15,60
9,12.44290990443557,7.4,30,16,60,18.0, 8,20,60
11,101127.88978494624,99600.0, 1, 4,60,102200.0, 6, 3,60
13,2.6385752688171926,0.0, 1, 1,60,8.2,18,11,60
15,189.59677419354839,0.0, 1, 1,30,355.0, 5,15,30
17,120.11256720430107,0.0, 1, 1,30,472.0,23,13,30
19,129.91263440860215,0.0, 1, 1,30,833.0, 9,14,30
21,182.1982267772758,5.67203002961459,22, 1,30,359.0034812382162, 1,24,60
23,18.53431262510742,-20.383207819315609,31,24,60,62.002565839195067, 1,12,60
135,25.733182996061819,22.619344562855298, 4, 6,60,29.39121945983449,21,15,30
137,24.16738843185045,21.292844265730119, 4, 4,60,28.811850825791529,21,15,30
139,24.95028571395615,21.992861117000389, 4, 4,60,29.101535142813007,21,15,30
141,0.7166849361067651,0.6940220315938714,23,15,60,0.7338897837240591,22, 5,60
229,3.1417266244006107,0.0, 1, 1,30,1166.1462774504287, 4, 5,10
231,1056.1662414615573,0.0, 1, 1,30,5571.754752430616,22,14,60
233,48.32617908366772,32.67166268226476,23,19,59,63.59916864474483,26,23,60
333,34.999513621263158,0.0, 1, 1,30,125.79535330540937, 1, 9,30
495,0.0,0.0, 1, 1,30,0.0, 1, 1,30
559,3.1640284220230234,0.0, 1, 1,30,1226.2252776669761, 4, 5,10
561,897.9453885360189,0.0, 1, 1,30,5756.611764999426,22,14,60
563,1008.6165423098254,0.0, 1, 1,30,6760.858096111634, 8,14,60
565,0.0,0.0, 1, 1,30,0.0, 1, 1,30
567,0.0,0.0, 1, 1,30,0.0, 1, 1,30
569,0.0,0.0, 1, 1,30,0.0, 1, 1,30
571,0.0,0.0, 1, 1,30,0.0, 1, 1,30
600,0.3254583645194258,0.0, 1, 1,30,1.1846965288697434, 1,10,30
29,2974681170.409213,101297.898637848, 1, 1,30,5069092.8492, 1, 7,30
65,1761497798.4000169,0.0, 1, 1,30,3191119.2, 1, 7,30
102,1213183372.009287,101297.898637848, 1, 1,30,1877973.6492, 1, 7,30
339,102217231.00873673,0.0, 1, 1,30,1078671.346927996, 4, 5,30
526,2701478546.9226348,0.0, 1, 1,30,12169544.573000942, 8,14,60
577,0.0,0.0, 1, 1,30,0.0, 1, 1,30
4,243, 8
7,16.724966397849458,7.0,28, 5,60,28.8,19,14,60
9,11.907795697310933,6.2, 4,18,60,17.3,19,10,60
11,100771.57258064517,99500.0,11, 2,60,102200.0,31,21,60
13,2.850739247311819,0.0, 2, 3,60,9.3, 6,14,60
15,189.20698924731185,0.0, 2, 3,60,355.0, 3, 5,30
17,97.23555107526882,0.0, 1, 1,30,427.0, 5,14,30
19,133.46505376344087,0.0, 1, 1,30,837.0,18,12,30
21,182.55288908939216,5.825610833294366, 1, 1,30,359.6327719374013,31,24,60
23,12.111557444013157,-29.93830931816447,31,24,60,57.02455663049494, 1,12,60
135,25.099384666293319,20.590009079076805,26, 5,30,30.201324701891524,18,15,30
137,23.727054837662334,19.351295514483323,26, 4,60,29.840674446227859,18,15,30
139,24.413219751977839,20.016057150211617,26, 4,60,30.02099957405969,18,15,30
141,0.7170640822941204,0.6888881516210064,19,14,60,0.7381430545645121,28, 5,10
229,15.597728955958381,0.0, 1, 1,30,7361.487598164071,26, 5, 3
231,917.4090297730073,0.0, 1, 1,30,6343.122996766093,19,14,30
233,48.22927671194245,30.641403134192637, 4,19,60,64.97546907716564,10, 3,60
333,33.477795637729979,0.0, 1, 1,30,125.79535330540937, 1, 9,30
495,0.0,0.0, 1, 1,30,0.0, 1, 1,30
559,15.868801886339684,0.0, 1, 1,30,8605.768060074599,26, 5, 3
561,758.1532169816239,0.0, 1, 1,30,6908.692573137376,19,14,30
563,851.0616611347612,0.0, 1, 1,30,7338.172109047821,19,14,60
565,0.0,0.0, 1, 1,30,0.0, 1, 1,30
567,0.0,0.0, 1, 1,30,0.0, 1, 1,30
569,0.0,0.0, 1, 1,30,0.0, 1, 1,30
571,0.0,0.0, 1, 1,30,0.0, 1, 1,30
600,0.3119572025050228,0.0, 1, 1,30,1.1871887634728345,23, 9,60
29,2851900740.0946094,101297.898637848, 1, 1,30,5069092.8492, 1, 7,30
65,1684910937.6000157,0.0, 1, 1,30,3191119.2, 1, 7,30
102,1166989802.4946686,101297.898637848, 1, 1,30,1877973.6492, 1, 7,30
339,132169926.8084673,0.0, 1, 1,30,3925011.7276130749,26, 5,30
526,2279483553.1833426,0.0, 1, 1,30,13208709.796286079,19,14,60
577,0.0,0.0, 1, 1,30,0.0, 1, 1,30
4,273, 9
7,13.849687499999995,3.4,24, 5,60,21.4,15,14,60
9,9.179097222222217,2.7,13,17,60,16.0,29,14,60
11,101067.77777777778,99800.0,20, 2,60,102200.0, 1, 1,30
13,3.433680555555539,0.0, 1, 1,30,9.3,18,14,60
15,141.60069444444447,0.0, 1, 1,30,355.0, 2,20,30
17,72.05486111111111,0.0, 1, 1,30,386.0, 7,13,30
19,96.09027777777777,0.0, 1, 1,30,800.0,15,13,30
21,184.69037864446555,8.289043234478772, 1, 1,30,359.9951598818213, 4,24,60
23,2.708655355346816,-41.32926370674042,30,24,60,47.40068655708953, 1,12,60
135,23.24796878631649,18.603311237351315,23, 5,30,28.28726292804483, 6,14,60
137,22.329398580184696,17.06344001662976,24, 4,60,26.431280611284927, 6,19,60
139,22.788683683250587,17.928499981374963,24, 4,60,26.44354873797228, 7,15,60
141,0.7207748215977715,0.7051170528986802, 1,14,60,0.7472841045760644,24, 5,45
229,60.647777341631549,0.0, 1, 1,30,7427.082962558929,24, 5, 6
231,594.2823305482151,0.0, 1, 1,30,4583.980077911603, 6,14,60
233,45.39996240804354,26.531437041125945,13,19,30,79.99019139179808,29,23,30
333,33.021280242670027,0.0, 1, 1,30,125.79535330540937, 2, 9,15
495,0.0,0.0, 1, 1,30,0.0, 1, 1,30
559,69.71629593356323,0.0, 1, 1,30,8605.768060074079,23, 5, 5
561,350.85308718656776,0.0, 1, 1,30,4174.60412170612, 6,14,60
563,355.11205713592,0.0, 1, 1,30,4174.60412170612, 6,14,60
565,0.0,0.0, 1, 1,30,0.0, 1, 1,30
567,0.0,0.0, 1, 1,30,0.0, 1, 1,30
569,0.0,0.0, 1, 1,30,0.0, 1, 1,30
571,0.0,0.0, 1, 1,30,0.0, 1, 1,30
600,0.30631478277416565,0.0, 1, 1,30,1.1816451512417994,20,10,30
29,2724258010.6453788,101297.898637848, 1, 1,30,5069092.8492, 2, 7,30
65,1608324076.8000146,0.0, 1, 1,30,3191119.2, 2, 7,30
102,1115933933.8454428,101297.898637848, 1, 1,30,1877973.6492, 2, 7,30
339,266295797.44879524,0.0, 1, 1,30,7453048.400685726,24, 5,30
526,920450452.0963049,0.0, 1, 1,30,7514287.419071016, 6,14,60
577,0.0,0.0, 1, 1,30,0.0, 1, 1,30
4,304,10
7,10.556821236559133,-1.0,25, 5,60,19.5, 2,14,60
9,8.203259341174146,-1.2,25, 5,60,15.7,15,22,60
11,100146.50537634408,95900.0,16, 3,60,102100.0,25, 5,60
13,2.8880376344085887,0.0, 1, 1,60,17.5,16, 6,60
15,149.69758064516129,0.0, 1, 1,60,355.0, 1, 4,30
17,41.9630376344086,0.0, 1, 1,30,262.0, 3,12,30
19,73.96774193548387,0.0, 1, 1,30,789.0, 1,12,30
21,186.82894563001205,13.073124808059685, 1, 1,30,356.8764478557945, 1,24,60
23,-7.493113268603555,-52.60740210552183,31,24,30,35.90810115512427, 1,12,60
135,21.08485280370457,16.85773157525951,28, 5,30,26.516508346391985, 4,14,30
137,20.71556743948594,15.58200781118477,14, 4,60,25.012131610688745, 4,19,60
139,20.900210121595259,16.33104673367997,14, 4,60,25.25825410666639, 4,14,30
141,0.7252007922848022,0.7033093049524791,27,19,60,0.7593120542330912,25, 5,50
229,192.41562130547144,0.0, 1, 1,30,7646.680773264869,25, 5, 8
231,350.55206520673917,0.0, 1, 1,30,3065.608994836418, 4,14,30
233,47.507875716997968,21.892673512218363,25, 6,60,80.83965310397343,27,22,30
333,34.999513621263158,0.0, 1, 1,30,125.79535330540937, 1, 9,30
495,0.0,0.0, 1, 1,30,0.0, 1, 1,30
559,290.52101475832986,0.0, 1, 1,30,8605.76806007438,22, 5, 4
561,73.20364920713368,0.0, 1, 1,30,2438.6357185678175, 4,14,60
563,79.50503468711908,0.0, 1, 1,30,2904.5059042666253, 4,14,30
565,0.0,0.0, 1, 1,30,0.0, 1, 1,30
567,0.0,0.0, 1, 1,30,0.0, 1, 1,30
569,0.0,0.0, 1, 1,30,0.0, 1, 1,30
571,0.0,0.0, 1, 1,30,0.0, 1, 1,30
600,0.3255507722607775,0.0, 1, 1,30,1.2078964440662977,15,16,60
29,2974681170.4092075,101297.898637848, 1, 1,30,5069092.8492, 1, 7,30
65,1761497798.4000169,0.0, 1, 1,30,3191119.2, 1, 7,30
102,1213183372.009287,101297.898637848, 1, 1,30,1877973.6492, 1, 7,30
339,871874183.2119024,0.0, 1, 1,30,9378276.319787508,29, 5,30
526,212946284.90597964,0.0, 1, 1,30,5228110.627679925, 4,14,30
577,0.0,0.0, 1, 1,30,0.0, 1, 1,30
4,334,11
7,7.8161805555555559,-5.0, 6, 7,60,14.8,11,14,60
9,5.706735961377316,-5.6, 6, 7,60,12.1,11,13,60
11,100882.74305555556,98500.0,16, 4,60,103000.0, 5, 7,60
13,2.305277777777771,0.0, 1, 1,60,6.7,19,14,60
15,180.13888888888889,0.0, 1, 1,60,355.0, 3,17,30
17,28.640625,0.0, 1, 1,30,193.0, 6,13,30
19,38.63194444444444,0.0, 1, 1,30,680.0, 5,12,30
21,187.027602427951,18.096462366618746, 1, 1,30,354.8970703730474,30,24,60
23,-15.927835427011486,-60.29982757163218,30,24,60,24.57790528851248, 1,12,30
135,18.880856646884973,13.994303863667153,18, 6,30,23.664937459538146,13,13,60
137,18.88108438590346,12.348661392780514,18, 5,60,23.999921040300984,13,14,30
139,18.880970516394208,13.220875141772883,18, 5,60,23.832057534096088,13,13,60
141,0.7277004439355446,0.7078285033409885,25, 3,60,0.7704566445466924, 6, 7,60
229,340.3880661776936,0.0, 1, 1,30,8209.67478317623, 4, 6,33
231,153.8471014833451,0.0, 1, 1,30,1665.5107426708714, 5,15,15
233,45.15929923742496,15.484287648941092, 6, 7,60,71.17448307464446,11, 5,60
333,33.021280242670027,0.0, 1, 1,30,125.79535330540937, 1,10,30
495,0.0,0.0, 1, 1,30,0.0, 1, 1,30
559,587.5721138728145,0.0, 1, 1,30,8605.768060074399,25, 6, 3
561,0.19487682318629574,0.0, 1, 1,30,141.77992785206198,13,13,30
563,0.19487682318629574,0.0, 1, 1,30,141.77992785206198,13,13,30
565,0.0,0.0, 1, 1,30,0.0, 1, 1,30
567,0.0,0.0, 1, 1,30,0.0, 1, 1,30
569,0.0,0.0, 1, 1,30,0.0, 1, 1,30
571,0.0,0.0, 1, 1,30,0.0, 1, 1,30
600,0.3039138569135611,0.0, 1, 1,30,1.1903244037260195,15,15,30
29,2724258010.645383,101297.898637848, 1, 1,30,5069092.8492, 1, 8,30
65,1608324076.8000146,0.0, 1, 1,30,3191119.2, 1, 8,30
102,1115933933.8454388,101297.898637848, 1, 1,30,1877973.6492, 1, 8,30
339,1608578077.5473366,0.0, 1, 1,30,14194552.901134126,18, 6,60
526,505120.7256988785,0.0, 1, 1,30,255203.87013371156,13,13,30
577,0.0,0.0, 1, 1,30,0.0, 1, 1,30
4,365,12
7,5.107426075268811,-5.9, 7, 8,60,12.4,24,13,60
9,3.325403206783511,-6.6, 7, 8,60,10.9,24, 5,60
11,100648.25268817204,96800.0,18,22,60,103100.0, 1,10,60
13,3.176108870967723,0.0, 1, 1,60,12.9, 9,21,60
15,176.78763440860215,0.0, 1, 1,60,355.0, 5,21,30
17,17.438508064516129,0.0, 1, 1,30,133.0, 2,12,30
19,21.962365591397849,0.0, 1, 1,30,466.0,30,12,30
21,184.6557802272042,13.06222514058711,31, 1,30,359.8873159760817,25,24,60
23,-20.047378204566209,-62.3425503217508,23,24,60,17.122565036716148, 1,12,60
135,17.285017559041468,12.157731315055554,16, 6,30,22.32287432293904,26,13,30
137,17.780114378069244,11.99999999999999,15,23,60,22.046287483580725,27,19,60
139,17.532565968555347,12.092435816990236,16, 5,60,22.161437161469519,26,13,30
141,0.732042709848419,0.7049867490352848, 9, 5,60,0.7723644386482228,11, 6,46
229,681.3881396130638,0.0, 1, 1,30,8559.82321283008,16, 6,60
231,31.7700393377983,0.0, 1, 1,30,1174.748743004624,26,12,60
233,41.97589935815048,14.128378418608357, 4, 6,59,82.50003567749137, 9, 5,60