Program Version,EnergyPlus, Version 8.6.0-198c6a3cff, YMD=2018.06.13 14:58
1,5,Environment Title[],Latitude[deg],Longitude[deg],Time Zone[],Elevation[m]
2,6,Day of Simulation[],Month[],Day of Month[],DST Indicator[1=yes 0=no],Hour[],StartMinute[],EndMinute[],DayType
3,3,Cumulative Day of Simulation[],Month[],Day of Month[],DST Indicator[1=yes 0=no],DayType  ! When Daily Report Variables Requested
4,2,Cumulative Days of Simulation[],Month[]  ! When Monthly Report Variables Requested
5,1,Cumulative Days of Simulation[] ! When Run Period Report Variables Requested
6,7,Environment,Site Outdoor Air Drybulb Temperature [C] !Daily [Value,Min,Hour,Minute,Max,Hour,Minute]
7,9,Environment,Site Outdoor Air Drybulb Temperature [C] !Monthly [Value,Min,Day,Hour,Minute,Max,Day,Hour,Minute]
8,11,Environment,Site Outdoor Air Drybulb Temperature [C] !RunPeriod [Value,Min,Month,Day,Hour,Minute,Max,Month,Day,Hour,Minute]
9,7,Environment,Site Outdoor Air Dewpoint Temperature [C] !Daily [Value,Min,Hour,Minute,Max,Hour,Minute]
10,9,Environment,Site Outdoor Air Dewpoint Temperature [C] !Monthly [Value,Min,Day,Hour,Minute,Max,Day,Hour,Minute]
11,11,Environment,Site Outdoor Air Dewpoint Temperature [C] !RunPeriod [Value,Min,Month,Day,Hour,Minute,Max,Month,Day,Hour,Minute]
12,7,Environment,Site Outdoor Air Barometric Pressure [Pa] !Daily [Value,Min,Hour,Minute,Max,Hour,Minute]
13,9,Environment,Site Outdoor Air Barometric Pressure [Pa] !Monthly [Value,Min,Day,Hour,Minute,Max,Day,Hour,Minute]
14,11,Environment,Site Outdoor Air Barometric Pressure [Pa] !RunPeriod [Value,Min,Month,Day,Hour,Minute,Max,Month,Day,Hour,Minute]
15,7,Environment,Site Wind Speed [m/s] !Daily [Value,Min,Hour,Minute,Max,Hour,Minute]
16,9,Environment,Site Wind Speed [m/s] !Monthly [Value,Min,Day,Hour,Minute,Max,Day,Hour,Minute]
17,11,Environment,Site Wind Speed [m/s] !RunPeriod [Value,Min,Month,Day,Hour,Minute,Max,Month,Day,Hour,Minute]
18,7,Environment,Site Wind Direction [deg] !Daily [Value,Min,Hour,Minute,Max,Hour,Minute]
19,9,Environment,Site Wind Direction [deg] !Monthly [Value,Min,Day,Hour,Minute,Max,Day,Hour,Minute]
20,11,Environment,Site Wind Direction [deg] !RunPeriod [Value,Min,Month,Day,Hour,Minute,Max,Month,Day,Hour,Minute]
21,7,Environment,Site Diffuse Solar Radiation Rate per Area [W/m2] !Daily [Value,Min,Hour,Minute,Max,Hour,Minute]
22,9,Environment,Site Diffuse Solar Radiation Rate per Area [W/m2] !Monthly [Value,Min,Day,Hour,Minute,Max,Day,Hour,Minute]
23,11,Environment,Site Diffuse Solar Radiation Rate per Area [W/m2] !RunPeriod [Value,Min,Month,Day,Hour,Minute,Max,Month,Day,Hour,Minute]
24,7,Environment,Site Direct Solar Radiation Rate per Area [W/m2] !Daily [Value,Min,Hour,Minute,Max,Hour,Minute]
25,9,Environment,Site Direct Solar Radiation Rate per Area [W/m2] !Monthly [Value,Min,Day,Hour,Minute,Max,Day,Hour,Minute]
26,11,Environment,Site Direct Solar Radiation Rate per Area [W/m2] !RunPeriod [Value,Min,Month,Day,Hour,Minute,Max,Month,Day,Hour,Minute]
27,7,Environment,Site Solar Azimuth Angle [deg] !Daily [Value,Min,Hour,Minute,Max,Hour,Minute]
28,9,Environment,Site Solar Azimuth Angle [deg] !Monthly [Value,Min,Day,Hour,Minute,Max,Day,Hour,Minute]
29,11,Environment,Site Solar Azimuth Angle [deg] !RunPeriod [Value,Min,Month,Day,Hour,Minute,Max,Month,Day,Hour,Minute]
30,7,Environment,Site Solar Altitude Angle [deg] !Daily [Value,Min,Hour,Minute,Max,Hour,Minute]
31,9,Environment,Site Solar Altitude Angle [deg] !Monthly [Value,Min,Day,Hour,Minute,Max,Day,Hour,Minute]
32,11,Environment,Site Solar Altitude Angle [deg] !RunPeriod [Value,Min,Month,Day,Hour,Minute,Max,Month,Day,Hour,Minute]
33,7,GROUNDFLOOR:ZONE1,Zone People Sensible Heating Rate [W] !Daily [Value,Min,Hour,Minute,Max,Hour,Minute]
34,9,GROUNDFLOOR:ZONE1,Zone People Sensible Heating Rate [W] !Monthly [Value,Min,Day,Hour,Minute,Max,Day,Hour,Minute]
35,11,GROUNDFLOOR:ZONE1,Zone People Sensible Heating Rate [W] !RunPeriod [Value,Min,Month,Day,Hour,Minute,Max,Month,Day,Hour,Minute]
36,7,FLOOR1:ZONE1,Zone People Sensible Heating Rate [W] !Daily [Value,Min,Hour,Minute,Max,Hour,Minute]
37,9,FLOOR1:ZONE1,Zone People Sensible Heating Rate [W] !Monthly [Value,Min,Day,Hour,Minute,Max,Day,Hour,Minute]
38,11,FLOOR1:ZONE1,Zone People Sensible Heating Rate [W] !RunPeriod [Value,Min,Month,Day,Hour,Minute,Max,Month,Day,Hour,Minute]
162,7,GROUNDFLOOR:ZONE1,Zone Other Equipment Total Heating Energy [J] !Daily  [Value,Min,Hour,Minute,Max,Hour,Minute]
163,9,GROUNDFLOOR:ZONE1,Zone Other Equipment Total Heating Energy [J] !Monthly  [Value,Min,Day,Hour,Minute,Max,Day,Hour,Minute]
164,11,GROUNDFLOOR:ZONE1,Zone Other Equipment Total Heating Energy [J] !RunPeriod [Value,Min,Month,Day,Hour,Minute,Max,Month,Day,Hour,Minute]
186,7,FLOOR1:ZONE1,Zone Other Equipment Total Heating Energy [J] !Daily  [Value,Min,Hour,Minute,Max,Hour,Minute]
187,9,FLOOR1:ZONE1,Zone Other Equipment Total Heating Energy [J] !Monthly  [Value,Min,Day,Hour,Minute,Max,Day,Hour,Minute]
188,11,FLOOR1:ZONE1,Zone Other Equipment Total Heating Energy [J] !RunPeriod [Value,Min,Month,Day,Hour,Minute,Max,Month,Day,Hour,Minute]
189,7,GROUNDFLOOR:ZONE1,Zone Windows Total Transmitted Solar Radiation Rate [W] !Daily [Value,Min,Hour,Minute,Max,Hour,Minute]
190,9,GROUNDFLOOR:ZONE1,Zone Windows Total Transmitted Solar Radiation Rate [W] !Monthly [Value,Min,Day,Hour,Minute,Max,Day,Hour,Minute]
191,11,GROUNDFLOOR:ZONE1,Zone Windows Total Transmitted Solar Radiation Rate [W] !RunPeriod [Value,Min,Month,Day,Hour,Minute,Max,Month,Day,Hour,Minute]
192,7,GROUNDFLOOR:ZONE1,Zone Interior Windows Total Transmitted Beam Solar Radiation Rate [W] !Daily [Value,Min,Hour,Minute,Max,Hour,Minute]
193,9,GROUNDFLOOR:ZONE1,Zone Interior Windows Total Transmitted Beam Solar Radiation Rate [W] !Monthly [Value,Min,Day,Hour,Minute,Max,Day,Hour,Minute]
194,11,GROUNDFLOOR:ZONE1,Zone Interior Windows Total Transmitted Beam Solar Radiation Rate [W] !RunPeriod [Value,Min,Month,Day,Hour,Minute,Max,Month,Day,Hour,Minute]
195,7,GROUNDFLOOR:ZONE1,Zone Interior Windows Total Transmitted Diffuse Solar Radiation Rate [W] !Daily [Value,Min,Hour,Minute,Max,Hour,Minute]
196,9,GROUNDFLOOR:ZONE1,Zone Interior Windows Total Transmitted Diffuse Solar Radiation Rate [W] !Monthly [Value,Min,Day,Hour,Minute,Max,Day,Hour,Minute]
197,11,GROUNDFLOOR:ZONE1,Zone Interior Windows Total Transmitted Diffuse Solar Radiation Rate [W] !RunPeriod [Value,Min,Month,Day,Hour,Minute,Max,Month,Day,Hour,Minute]
198,7,FLOOR1:ZONE1,Zone Windows Total Transmitted Solar Radiation Rate [W] !Daily [Value,Min,Hour,Minute,Max,Hour,Minute]
199,9,FLOOR1:ZONE1,Zone Windows Total Transmitted Solar Radiation Rate [W] !Monthly [Value,Min,Day,Hour,Minute,Max,Day,Hour,Minute]
200,11,FLOOR1:ZONE1,Zone Windows Total Transmitted Solar Radiation Rate [W] !RunPeriod [Value,Min,Month,Day,Hour,Minute,Max,Month,Day,Hour,Minute]
201,7,FLOOR1:ZONE1,Zone Interior Windows Total Transmitted Beam Solar Radiation Rate [W] !Daily [Value,Min,Hour,Minute,Max,Hour,Minute]
202,9,FLOOR1:ZONE1,Zone Interior Windows Total Transmitted Beam Solar Radiation Rate [W] !Monthly [Value,Min,Day,Hour,Minute,Max,Day,Hour,Minute]
203,11,FLOOR1:ZONE1,Zone Interior Windows Total Transmitted Beam Solar Radiation Rate [W] !RunPeriod [Value,Min,Month,Day,Hour,Minute,Max,Month,Day,Hour,Minute]
204,7,FLOOR1:ZONE1,Zone Interior Windows Total Transmitted Diffuse Solar Radiation Rate [W] !Daily [Value,Min,Hour,Minute,Max,Hour,Minute]
205,9,FLOOR1:ZONE1,Zone Interior Windows Total Transmitted Diffuse Solar Radiation Rate [W] !Monthly [Value,Min,Day,Hour,Minute,Max,Day,Hour,Minute]
206,11,FLOOR1:ZONE1,Zone Interior Windows Total Transmitted Diffuse Solar Radiation Rate [W] !RunPeriod [Value,Min,Month,Day,Hour,Minute,Max,Month,Day,Hour,Minute]
207,7,ATRIUM:ZONE1,Zone Windows Total Transmitted Solar Radiation Rate [W] !Daily [Value,Min,Hour,Minute,Max,Hour,Minute]
208,9,ATRIUM:ZONE1,Zone Windows Total Transmitted Solar Radiation Rate [W] !Monthly [Value,Min,Day,Hour,Minute,Max,Day,Hour,Minute]
209,11,ATRIUM:ZONE1,Zone Windows Total Transmitted Solar Radiation Rate [W] !RunPeriod [Value,Min,Month,Day,Hour,Minute,Max,Month,Day,Hour,Minute]
210,7,ATRIUM:ZONE1,Zone Interior Windows Total Transmitted Beam Solar Radiation Rate [W] !Daily [Value,Min,Hour,Minute,Max,Hour,Minute]
211,9,ATRIUM:ZONE1,Zone Interior Windows Total Transmitted Beam Solar Radiation Rate [W] !Monthly [Value,Min,Day,Hour,Minute,Max,Day,Hour,Minute]
212,11,ATRIUM:ZONE1,Zone Interior Windows Total Transmitted Beam Solar Radiation Rate [W] !RunPeriod [Value,Min,Month,Day,Hour,Minute,Max,Month,Day,Hour,Minute]
213,7,ATRIUM:ZONE1,Zone Interior Windows Total Transmitted Diffuse Solar Radiation Rate [W] !Daily [Value,Min,Hour,Minute,Max,Hour,Minute]
214,9,ATRIUM:ZONE1,Zone Interior Windows Total Transmitted Diffuse Solar Radiation Rate [W] !Monthly [Value,Min,Day,Hour,Minute,Max,Day,Hour,Minute]
215,11,ATRIUM:ZONE1,Zone Interior Windows Total Transmitted Diffuse Solar Radiation Rate [W] !RunPeriod [Value,Min,Month,Day,Hour,Minute,Max,Month,Day,Hour,Minute]
216,7,GROUNDFLOOR:ZONE1_WALL_2_0_0_0_0_0_WIN,Surface Window Transmitted Solar Radiation Rate [W] !Daily [Value,Min,Hour,Minute,Max,Hour,Minute]
217,9,GROUNDFLOOR:ZONE1_WALL_2_0_0_0_0_0_WIN,Surface Window Transmitted Solar Radiation Rate [W] !Monthly [Value,Min,Day,Hour,Minute,Max,Day,Hour,Minute]
218,11,GROUNDFLOOR:ZONE1_WALL_2_0_0_0_0_0_WIN,Surface Window Transmitted Solar Radiation Rate [W] !RunPeriod [Value,Min,Month,Day,Hour,Minute,Max,Month,Day,Hour,Minute]
219,7,GROUNDFLOOR:ZONE1_WALL_2_0_0_0_0_0_WIN,Surface Window Heat Gain Rate [W] !Daily [Value,Min,Hour,Minute,Max,Hour,Minute]
220,9,GROUNDFLOOR:ZONE1_WALL_2_0_0_0_0_0_WIN,Surface Window Heat Gain Rate [W] !Monthly [Value,Min,Day,Hour,Minute,Max,Day,Hour,Minute]
221,11,GROUNDFLOOR:ZONE1_WALL_2_0_0_0_0_0_WIN,Surface Window Heat Gain Rate [W] !RunPeriod [Value,Min,Month,Day,Hour,Minute,Max,Month,Day,Hour,Minute]
222,7,GROUNDFLOOR:ZONE1_WALL_2_0_0_0_0_0_WIN,Surface Window Heat Loss Rate [W] !Daily [Value,Min,Hour,Minute,Max,Hour,Minute]
223,9,GROUNDFLOOR:ZONE1_WALL_2_0_0_0_0_0_WIN,Surface Window Heat Loss Rate [W] !Monthly [Value,Min,Day,Hour,Minute,Max,Day,Hour,Minute]
224,11,GROUNDFLOOR:ZONE1_WALL_2_0_0_0_0_0_WIN,Surface Window Heat Loss Rate [W] !RunPeriod [Value,Min,Month,Day,Hour,Minute,Max,Month,Day,Hour,Minute]
225,7,GROUNDFLOOR:ZONE1_WALL_3_0_0_0_0_0_WIN,Surface Window Transmitted Solar Radiation Rate [W] !Daily [Value,Min,Hour,Minute,Max,Hour,Minute]
226,9,GROUNDFLOOR:ZONE1_WALL_3_0_0_0_0_0_WIN,Surface Window Transmitted Solar Radiation Rate [W] !Monthly [Value,Min,Day,Hour,Minute,Max,Day,Hour,Minute]
227,11,GROUNDFLOOR:ZONE1_WALL_3_0_0_0_0_0_WIN,Surface Window Transmitted Solar Radiation Rate [W] !RunPeriod [Value,Min,Month,Day,Hour,Minute,Max,Month,Day,Hour,Minute]
228,7,GROUNDFLOOR:ZONE1_WALL_3_0_0_0_0_0_WIN,Surface Window Heat Gain Rate [W] !Daily [Value,Min,Hour,Minute,Max,Hour,Minute]
229,9,GROUNDFLOOR:ZONE1_WALL_3_0_0_0_0_0_WIN,Surface Window Heat Gain Rate [W] !Monthly [Value,Min,Day,Hour,Minute,Max,Day,Hour,Minute]
230,11,GROUNDFLOOR:ZONE1_WALL_3_0_0_0_0_0_WIN,Surface Window Heat Gain Rate [W] !RunPeriod [Value,Min,Month,Day,Hour,Minute,Max,Month,Day,Hour,Minute]
231,7,GROUNDFLOOR:ZONE1_WALL_3_0_0_0_0_0_WIN,Surface Window Heat Loss Rate [W] !Daily [Value,Min,Hour,Minute,Max,Hour,Minute]
232,9,GROUNDFLOOR:ZONE1_WALL_3_0_0_0_0_0_WIN,Surface Window Heat Loss Rate [W] !Monthly [Value,Min,Day,Hour,Minute,Max,Day,Hour,Minute]
233,11,GROUNDFLOOR:ZONE1_WALL_3_0_0_0_0_0_WIN,Surface Window Heat Loss Rate [W] !RunPeriod [Value,Min,Month,Day,Hour,Minute,Max,Month,Day,Hour,Minute]
234,7,GROUNDFLOOR:ZONE1_WALL_4_0_0_0_0_0_WIN,Surface Window Transmitted Solar Radiation Rate [W] !Daily [Value,Min,Hour,Minute,Max,Hour,Minute]
235,9,GROUNDFLOOR:ZONE1_WALL_4_0_0_0_0_0_WIN,Surface Window Transmitted Solar Radiation Rate [W] !Monthly [Value,Min,Day,Hour,Minute,Max,Day,Hour,Minute]
236,11,GROUNDFLOOR:ZONE1_WALL_4_0_0_0_0_0_WIN,Surface Window Transmitted Solar Radiation Rate [W] !RunPeriod [Value,Min,Month,Day,Hour,Minute,Max,Month,Day,Hour,Minute]
237,7,GROUNDFLOOR:ZONE1_WALL_4_0_0_0_0_0_WIN,Surface Window Heat Gain Rate [W] !Daily [Value,Min,Hour,Minute,Max,Hour,Minute]
238,9,GROUNDFLOOR:ZONE1_WALL_4_0_0_0_0_0_WIN,Surface Window Heat Gain Rate [W] !Monthly [Value,Min,Day,Hour,Minute,Max,Day,Hour,Minute]
239,11,GROUNDFLOOR:ZONE1_WALL_4_0_0_0_0_0_WIN,Surface Window Heat Gain Rate [W] !RunPeriod [Value,Min,Month,Day,Hour,Minute,Max,Month,Day,Hour,Minute]
240,7,GROUNDFLOOR:ZONE1_WALL_4_0_0_0_0_0_WIN,Surface Window Heat Loss Rate [W] !Daily [Value,Min,Hour,Minute,Max,Hour,Minute]
241,9,GROUNDFLOOR:ZONE1_WALL_4_0_0_0_0_0_WIN,Surface Window Heat Loss Rate [W] !Monthly [Value,Min,Day,Hour,Minute,Max,Day,Hour,Minute]
242,11,GROUNDFLOOR:ZONE1_WALL_4_0_0_0_0_0_WIN,Surface Window Heat Loss Rate [W] !RunPeriod [Value,Min,Month,Day,Hour,Minute,Max,Month,Day,Hour,Minute]
243,7,GROUNDFLOOR:ZONE1_WALL_5_0_0_0_0_0_WIN,Surface Window Transmitted Solar Radiation Rate [W] !Daily [Value,Min,Hour,Minute,Max,Hour,Minute]
244,9,GROUNDFLOOR:ZONE1_WALL_5_0_0_0_0_0_WIN,Surface Window Transmitted Solar Radiation Rate [W] !Monthly [Value,Min,Day,Hour,Minute,Max,Day,Hour,Minute]
245,11,GROUNDFLOOR:ZONE1_WALL_5_0_0_0_0_0_WIN,Surface Window Transmitted Solar Radiation Rate [W] !RunPeriod [Value,Min,Month,Day,Hour,Minute,Max,Month,Day,Hour,Minute]
246,7,GROUNDFLOOR:ZONE1_WALL_5_0_0_0_0_0_WIN,Surface Window Heat Gain Rate [W] !Daily [Value,Min,Hour,Minute,Max,Hour,Minute]
247,9,GROUNDFLOOR:ZONE1_WALL_5_0_0_0_0_0_WIN,Surface Window Heat Gain Rate [W] !Monthly [Value,Min,Day,Hour,Minute,Max,Day,Hour,Minute]
248,11,GROUNDFLOOR:ZONE1_WALL_5_0_0_0_0_0_WIN,Surface Window Heat Gain Rate [W] !RunPeriod [Value,Min,Month,Day,Hour,Minute,Max,Month,Day,Hour,Minute]
249,7,GROUNDFLOOR:ZONE1_WALL_5_0_0_0_0_0_WIN,Surface Window Heat Loss Rate [W] !Daily [Value,Min,Hour,Minute,Max,Hour,Minute]
250,9,GROUNDFLOOR:ZONE1_WALL_5_0_0_0_0_0_WIN,Surface Window Heat Loss Rate [W] !Monthly [Value,Min,Day,Hour,Minute,Max,Day,Hour,Minute]
251,11,GROUNDFLOOR:ZONE1_WALL_5_0_0_0_0_0_WIN,Surface Window Heat Loss Rate [W] !RunPeriod [Value,Min,Month,Day,Hour,Minute,Max,Month,Day,Hour,Minute]
252,7,GROUNDFLOOR:ZONE1_PARTITION_6_0_0_0_0_0_WIN,Surface Window Transmitted Solar Radiation Rate [W] !Daily [Value,Min,Hour,Minute,Max,Hour,Minute]
253,9,GROUNDFLOOR:ZONE1_PARTITION_6_0_0_0_0_0_WIN,Surface Window Transmitted Solar Radiation Rate [W] !Monthly [Value,Min,Day,Hour,Minute,Max,Day,Hour,Minute]
254,11,GROUNDFLOOR:ZONE1_PARTITION_6_0_0_0_0_0_WIN,Surface Window Transmitted Solar Radiation Rate [W] !RunPeriod [Value,Min,Month,Day,Hour,Minute,Max,Month,Day,Hour,Minute]
255,7,GROUNDFLOOR:ZONE1_PARTITION_6_0_0_0_0_0_WIN,Surface Window Transmitted Beam Solar Radiation Rate [W] !Daily [Value,Min,Hour,Minute,Max,Hour,Minute]
256,9,GROUNDFLOOR:ZONE1_PARTITION_6_0_0_0_0_0_WIN,Surface Window Transmitted Beam Solar Radiation Rate [W] !Monthly [Value,Min,Day,Hour,Minute,Max,Day,Hour,Minute]
257,11,GROUNDFLOOR:ZONE1_PARTITION_6_0_0_0_0_0_WIN,Surface Window Transmitted Beam Solar Radiation Rate [W] !RunPeriod [Value,Min,Month,Day,Hour,Minute,Max,Month,Day,Hour,Minute]
258,7,GROUNDFLOOR:ZONE1_PARTITION_6_0_0_0_0_0_WIN,Surface Window Heat Gain Rate [W] !Daily [Value,Min,Hour,Minute,Max,Hour,Minute]
259,9,GROUNDFLOOR:ZONE1_PARTITION_6_0_0_0_0_0_WIN,Surface Window Heat Gain Rate [W] !Monthly [Value,Min,Day,Hour,Minute,Max,Day,Hour,Minute]
260,11,GROUNDFLOOR:ZONE1_PARTITION_6_0_0_0_0_0_WIN,Surface Window Heat Gain Rate [W] !RunPeriod [Value,Min,Month,Day,Hour,Minute,Max,Month,Day,Hour,Minute]
261,7,GROUNDFLOOR:ZONE1_PARTITION_6_0_0_0_0_0_WIN,Surface Window Heat Loss Rate [W] !Daily [Value,Min,Hour,Minute,Max,Hour,Minute]
262,9,GROUNDFLOOR:ZONE1_PARTITION_6_0_0_0_0_0_WIN,Surface Window Heat Loss Rate [W] !Monthly [Value,Min,Day,Hour,Minute,Max,Day,Hour,Minute]
263,11,GROUNDFLOOR:ZONE1_PARTITION_6_0_0_0_0_0_WIN,Surface Window Heat Loss Rate [W] !RunPeriod [Value,Min,Month,Day,Hour,Minute,Max,Month,Day,Hour,Minute]
264,7,GROUNDFLOOR:ZONE1_PARTITION_6_0_0_0_0_0_WIN,Surface Window Transmitted Beam Solar Radiation Rate [W] !Daily [Value,Min,Hour,Minute,Max,Hour,Minute]
265,9,GROUNDFLOOR:ZONE1_PARTITION_6_0_0_0_0_0_WIN,Surface Window Transmitted Beam Solar Radiation Rate [W] !Monthly [Value,Min,Day,Hour,Minute,Max,Day,Hour,Minute]
266,11,GROUNDFLOOR:ZONE1_PARTITION_6_0_0_0_0_0_WIN,Surface Window Transmitted Beam Solar Radiation Rate [W] !RunPeriod [Value,Min,Month,Day,Hour,Minute,Max,Month,Day,Hour,Minute]
267,7,GROUNDFLOOR:ZONE1_PARTITION_7_0_0_0_0_0_WIN,Surface Window Transmitted Solar Radiation Rate [W] !Daily [Value,Min,Hour,Minute,Max,Hour,Minute]
268,9,GROUNDFLOOR:ZONE1_PARTITION_7_0_0_0_0_0_WIN,Surface Window Transmitted Solar Radiation Rate [W] !Monthly [Value,Min,Day,Hour,Minute,Max,Day,Hour,Minute]
269,11,GROUNDFLOOR:ZONE1_PARTITION_7_0_0_0_0_0_WIN,Surface Window Transmitted Solar Radiation Rate [W] !RunPeriod [Value,Min,Month,Day,Hour,Minute,Max,Month,Day,Hour,Minute]
270,7,GROUNDFLOOR:ZONE1_PARTITION_7_0_0_0_0_0_WIN,Surface Window Transmitted Beam Solar Radiation Rate [W] !Daily [Value,Min,Hour,Minute,Max,Hour,Minute]
271,9,GROUNDFLOOR:ZONE1_PARTITION_7_0_0_0_0_0_WIN,Surface Window Transmitted Beam Solar Radiation Rate [W] !Monthly [Value,Min,Day,Hour,Minute,Max,Day,Hour,Minute]
272,11,GROUNDFLOOR:ZONE1_PARTITION_7_0_0_0_0_0_WIN,Surface Window Transmitted Beam Solar Radiation Rate [W] !RunPeriod [Value,Min,Month,Day,Hour,Minute,Max,Month,Day,Hour,Minute]
273,7,GROUNDFLOOR:ZONE1_PARTITION_7_0_0_0_0_0_WIN,Surface Window Heat Gain Rate [W] !Daily [Value,Min,Hour,Minute,Max,Hour,Minute]
274,9,GROUNDFLOOR:ZONE1_PARTITION_7_0_0_0_0_0_WIN,Surface Window Heat Gain Rate [W] !Monthly [Value,Min,Day,Hour,Minute,Max,Day,Hour,Minute]
275,11,GROUNDFLOOR:ZONE1_PARTITION_7_0_0_0_0_0_WIN,Surface Window Heat Gain Rate [W] !RunPeriod [Value,Min,Month,Day,Hour,Minute,Max,Month,Day,Hour,Minute]
276,7,GROUNDFLOOR:ZONE1_PARTITION_7_0_0_0_0_0_WIN,Surface Window Heat Loss Rate [W] !Daily [Value,Min,Hour,Minute,Max,Hour,Minute]
277,9,GROUNDFLOOR:ZONE1_PARTITION_7_0_0_0_0_0_WIN,Surface Window Heat Loss Rate [W] !Monthly [Value,Min,Day,Hour,Minute,Max,Day,Hour,Minute]
278,11,GROUNDFLOOR:ZONE1_PARTITION_7_0_0_0_0_0_WIN,Surface Window Heat Loss Rate [W] !RunPeriod [Value,Min,Month,Day,Hour,Minute,Max,Month,Day,Hour,Minute]
279,7,GROUNDFLOOR:ZONE1_PARTITION_7_0_0_0_0_0_WIN,Surface Window Transmitted Beam Solar Radiation Rate [W] !Daily [Value,Min,Hour,Minute,Max,Hour,Minute]
280,9,GROUNDFLOOR:ZONE1_PARTITION_7_0_0_0_0_0_WIN,Surface Window Transmitted Beam Solar Radiation Rate [W] !Monthly [Value,Min,Day,Hour,Minute,Max,Day,Hour,Minute]
281,11,GROUNDFLOOR:ZONE1_PARTITION_7_0_0_0_0_0_WIN,Surface Window Transmitted Beam Solar Radiation Rate [W] !RunPeriod [Value,Min,Month,Day,Hour,Minute,Max,Month,Day,Hour,Minute]
282,7,GROUNDFLOOR:ZONE1_PARTITION_8_0_0_0_0_0_WIN,Surface Window Transmitted Solar Radiation Rate [W] !Daily [Value,Min,Hour,Minute,Max,Hour,Minute]
283,9,GROUNDFLOOR:ZONE1_PARTITION_8_0_0_0_0_0_WIN,Surface Window Transmitted Solar Radiation Rate [W] !Monthly [Value,Min,Day,Hour,Minute,Max,Day,Hour,Minute]
284,11,GROUNDFLOOR:ZONE1_PARTITION_8_0_0_0_0_0_WIN,Surface Window Transmitted Solar Radiation Rate [W] !RunPeriod [Value,Min,Month,Day,Hour,Minute,Max,Month,Day,Hour,Minute]
285,7,GROUNDFLOOR:ZONE1_PARTITION_8_0_0_0_0_0_WIN,Surface Window Transmitted Beam Solar Radiation Rate [W] !Daily [Value,Min,Hour,Minute,Max,Hour,Minute]
286,9,GROUNDFLOOR:ZONE1_PARTITION_8_0_0_0_0_0_WIN,Surface Window Transmitted Beam Solar Radiation Rate [W] !Monthly [Value,Min,Day,Hour,Minute,Max,Day,Hour,Minute]
287,11,GROUNDFLOOR:ZONE1_PARTITION_8_0_0_0_0_0_WIN,Surface Window Transmitted Beam Solar Radiation Rate [W] !RunPeriod [Value,Min,Month,Day,Hour,Minute,Max,Month,Day,Hour,Minute]
288,7,GROUNDFLOOR:ZONE1_PARTITION_8_0_0_0_0_0_WIN,Surface Window Heat Gain Rate [W] !Daily [Value,Min,Hour,Minute,Max,Hour,Minute]
289,9,GROUNDFLOOR:ZONE1_PARTITION_8_0_0_0_0_0_WIN,Surface Window Heat Gain Rate [W] !Monthly [Value,Min,Day,Hour,Minute,Max,Day,Hour,Minute]
290,11,GROUNDFLOOR:ZONE1_PARTITION_8_0_0_0_0_0_WIN,Surface Window Heat Gain Rate [W] !RunPeriod [Value,Min,Month,Day,Hour,Minute,Max,Month,Day,Hour,Minute]
291,7,GROUNDFLOOR:ZONE1_PARTITION_8_0_0_0_0_0_WIN,Surface Window Heat Loss Rate [W] !Daily [Value,Min,Hour,Minute,Max,Hour,Minute]
292,9,GROUNDFLOOR:ZONE1_PARTITION_8_0_0_0_0_0_WIN,Surface Window Heat Loss Rate [W] !Monthly [Value,Min,Day,Hour,Minute,Max,Day,Hour,Minute]
293,11,GROUNDFLOOR:ZONE1_PARTITION_8_0_0_0_0_0_WIN,Surface Window Heat Loss Rate [W] !RunPeriod [Value,Min,Month,Day,Hour,Minute,Max,Month,Day,Hour,Minute]
294,7,GROUNDFLOOR:ZONE1_PARTITION_8_0_0_0_0_0_WIN,Surface Window Transmitted Beam Solar Radiation Rate [W] !Daily [Value,Min,Hour,Minute,Max,Hour,Minute]
295,9,GROUNDFLOOR:ZONE1_PARTITION_8_0_0_0_0_0_WIN,Surface Window Transmitted Beam Solar Radiation Rate [W] !Monthly [Value,Min,Day,Hour,Minute,Max,Day,Hour,Minute]
296,11,GROUNDFLOOR:ZONE1_PARTITION_8_0_0_0_0_0_WIN,Surface Window Transmitted Beam Solar Radiation Rate [W] !RunPeriod [Value,Min,Month,Day,Hour,Minute,Max,Month,Day,Hour,Minute]
297,7,GROUNDFLOOR:ZONE1_WALL_9_0_0_0_0_0_WIN,Surface Window Transmitted Solar Radiation Rate [W] !Daily [Value,Min,Hour,Minute,Max,Hour,Minute]
298,9,GROUNDFLOOR:ZONE1_WALL_9_0_0_0_0_0_WIN,Surface Window Transmitted Solar Radiation Rate [W] !Monthly [Value,Min,Day,Hour,Minute,Max,Day,Hour,Minute]
299,11,GROUNDFLOOR:ZONE1_WALL_9_0_0_0_0_0_WIN,Surface Window Transmitted Solar Radiation Rate [W] !RunPeriod [Value,Min,Month,Day,Hour,Minute,Max,Month,Day,Hour,Minute]
300,7,GROUNDFLOOR:ZONE1_WALL_9_0_0_0_0_0_WIN,Surface Window Heat Gain Rate [W] !Daily [Value,Min,Hour,Minute,Max,Hour,Minute]
301,9,GROUNDFLOOR:ZONE1_WALL_9_0_0_0_0_0_WIN,Surface Window Heat Gain Rate [W] !Monthly [Value,Min,Day,Hour,Minute,Max,Day,Hour,Minute]
302,11,GROUNDFLOOR:ZONE1_WALL_9_0_0_0_0_0_WIN,Surface Window Heat Gain Rate [W] !RunPeriod [Value,Min,Month,Day,Hour,Minute,Max,Month,Day,Hour,Minute]
303,7,GROUNDFLOOR:ZONE1_WALL_9_0_0_0_0_0_WIN,Surface Window Heat Loss Rate [W] !Daily [Value,Min,Hour,Minute,Max,Hour,Minute]
304,9,GROUNDFLOOR:ZONE1_WALL_9_0_0_0_0_0_WIN,Surface Window Heat Loss Rate [W] !Monthly [Value,Min,Day,Hour,Minute,Max,Day,Hour,Minute]
305,11,GROUNDFLOOR:ZONE1_WALL_9_0_0_0_0_0_WIN,Surface Window Heat Loss Rate [W] !RunPeriod [Value,Min,Month,Day,Hour,Minute,Max,Month,Day,Hour,Minute]
306,7,FLOOR1:ZONE1_WALL_2_0_0_0_0_0_WIN,Surface Window Transmitted Solar Radiation Rate [W] !Daily [Value,Min,Hour,Minute,Max,Hour,Minute]
307,9,FLOOR1:ZONE1_WALL_2_0_0_0_0_0_WIN,Surface Window Transmitted Solar Radiation Rate [W] !Monthly [Value,Min,Day,Hour,Minute,Max,Day,Hour,Minute]
308,11,FLOOR1:ZONE1_WALL_2_0_0_0_0_0_WIN,Surface Window Transmitted Solar Radiation Rate [W] !RunPeriod [Value,Min,Month,Day,Hour,Minute,Max,Month,Day,Hour,Minute]
309,7,FLOOR1:ZONE1_WALL_2_0_0_0_0_0_WIN,Surface Window Heat Gain Rate [W] !Daily [Value,Min,Hour,Minute,Max,Hour,Minute]
310,9,FLOOR1:ZONE1_WALL_2_0_0_0_0_0_WIN,Surface Window Heat Gain Rate [W] !Monthly [Value,Min,Day,Hour,Minute,Max,Day,Hour,Minute]
311,11,FLOOR1:ZONE1_WALL_2_0_0_0_0_0_WIN,Surface Window Heat Gain Rate [W] !RunPeriod [Value,Min,Month,Day,Hour,Minute,Max,Month,Day,Hour,Minute]
312,7,FLOOR1:ZONE1_WALL_2_0_0_0_0_0_WIN,Surface Window Heat Loss Rate [W] !Daily [Value,Min,Hour,Minute,Max,Hour,Minute]
313,9,FLOOR1:ZONE1_WALL_2_0_0_0_0_0_WIN,Surface Window Heat Loss Rate [W] !Monthly [Value,Min,Day,Hour,Minute,Max,Day,Hour,Minute]
314,11,FLOOR1:ZONE1_WALL_2_0_0_0_0_0_WIN,Surface Window Heat Loss Rate [W] !RunPeriod [Value,Min,Month,Day,Hour,Minute,Max,Month,Day,Hour,Minute]
315,7,FLOOR1:ZONE1_WALL_3_0_0_0_0_0_WIN,Surface Window Transmitted Solar Radiation Rate [W] !Daily [Value,Min,Hour,Minute,Max,Hour,Minute]
316,9,FLOOR1:ZONE1_WALL_3_0_0_0_0_0_WIN,Surface Window Transmitted Solar Radiation Rate [W] !Monthly [Value,Min,Day,Hour,Minute,Max,Day,Hour,Minute]
317,11,FLOOR1:ZONE1_WALL_3_0_0_0_0_0_WIN,Surface Window Transmitted Solar Radiation Rate [W] !RunPeriod [Value,Min,Month,Day,Hour,Minute,Max,Month,Day,Hour,Minute]
318,7,FLOOR1:ZONE1_WALL_3_0_0_0_0_0_WIN,Surface Window Heat Gain Rate [W] !Daily [Value,Min,Hour,Minute,Max,Hour,Minute]
319,9,FLOOR1:ZONE1_WALL_3_0_0_0_0_0_WIN,Surface Window Heat Gain Rate [W] !Monthly [Value,Min,Day,Hour,Minute,Max,Day,Hour,Minute]
320,11,FLOOR1:ZONE1_WALL_3_0_0_0_0_0_WIN,Surface Window Heat Gain Rate [W] !RunPeriod [Value,Min,Month,Day,Hour,Minute,Max,Month,Day,Hour,Minute]
321,7,FLOOR1:ZONE1_WALL_3_0_0_0_0_0_WIN,Surface Window Heat Loss Rate [W] !Daily [Value,Min,Hour,Minute,Max,Hour,Minute]
322,9,FLOOR1:ZONE1_WALL_3_0_0_0_0_0_WIN,Surface Window Heat Loss Rate [W] !Monthly [Value,Min,Day,Hour,Minute,Max,Day,Hour,Minute]
323,11,FLOOR1:ZONE1_WALL_3_0_0_0_0_0_WIN,Surface Window Heat Loss Rate [W] !RunPeriod [Value,Min,Month,Day,Hour,Minute,Max,Month,Day,Hour,Minute]
324,7,FLOOR1:ZONE1_WALL_4_0_0_0_0_0_WIN,Surface Window Transmitted Solar Radiation Rate [W] !Daily [Value,Min,Hour,Minute,Max,Hour,Minute]
325,9,FLOOR1:ZONE1_WALL_4_0_0_0_0_0_WIN,Surface Window Transmitted Solar Radiation Rate [W] !Monthly [Value,Min,Day,Hour,Minute,Max,Day,Hour,Minute]
326,11,FLOOR1:ZONE1_WALL_4_0_0_0_0_0_WIN,Surface Window Transmitted Solar Radiation Rate [W] !RunPeriod [Value,Min,Month,Day,Hour,Minute,Max,Month,Day,Hour,Minute]
327,7,FLOOR1:ZONE1_WALL_4_0_0_0_0_0_WIN,Surface Window Heat Gain Rate [W] !Daily [Value,Min,Hour,Minute,Max,Hour,Minute]
328,9,FLOOR1:ZONE1_WALL_4_0_0_0_0_0_WIN,Surface Window Heat Gain Rate [W] !Monthly [Value,Min,Day,Hour,Minute,Max,Day,Hour,Minute]
329,11,FLOOR1:ZONE1_WALL_4_0_0_0_0_0_WIN,Surface Window Heat Gain Rate [W] !RunPeriod [Value,Min,Month,Day,Hour,Minute,Max,Month,Day,Hour,Minute]
330,7,FLOOR1:ZONE1_WALL_4_0_0_0_0_0_WIN,Surface Window Heat Loss Rate [W] !Daily [Value,Min,Hour,Minute,Max,Hour,Minute]
331,9,FLOOR1:ZONE1_WALL_4_0_0_0_0_0_WIN,Surface Window Heat Loss Rate [W] !Monthly [Value,Min,Day,Hour,Minute,Max,Day,Hour,Minute]
332,11,FLOOR1:ZONE1_WALL_4_0_0_0_0_0_WIN,Surface Window Heat Loss Rate [W] !RunPeriod [Value,Min,Month,Day,Hour,Minute,Max,Month,Day,Hour,Minute]
333,7,FLOOR1:ZONE1_WALL_5_0_0_0_0_0_WIN,Surface Window Transmitted Solar Radiation Rate [W] !Daily [Value,Min,Hour,Minute,Max,Hour,Minute]
334,9,FLOOR1:ZONE1_WALL_5_0_0_0_0_0_WIN,Surface Window Transmitted Solar Radiation Rate [W] !Monthly [Value,Min,Day,Hour,Minute,Max,Day,Hour,Minute]
335,11,FLOOR1:ZONE1_WALL_5_0_0_0_0_0_WIN,Surface Window Transmitted Solar Radiation Rate [W] !RunPeriod [Value,Min,Month,Day,Hour,Minute,Max,Month,Day,Hour,Minute]
336,7,FLOOR1:ZONE1_WALL_5_0_0_0_0_0_WIN,Surface Window Heat Gain Rate [W] !Daily [Value,Min,Hour,Minute,Max,Hour,Minute]
337,9,FLOOR1:ZONE1_WALL_5_0_0_0_0_0_WIN,Surface Window Heat Gain Rate [W] !Monthly [Value,Min,Day,Hour,Minute,Max,Day,Hour,Minute]
338,11,FLOOR1:ZONE1_WALL_5_0_0_0_0_0_WIN,Surface Window Heat Gain Rate [W] !RunPeriod [Value,Min,Month,Day,Hour,Minute,Max,Month,Day,Hour,Minute]
339,7,FLOOR1:ZONE1_WALL_5_0_0_0_0_0_WIN,Surface Window Heat Loss Rate [W] !Daily [Value,Min,Hour,Minute,Max,Hour,Minute]
340,9,FLOOR1:ZONE1_WALL_5_0_0_0_0_0_WIN,Surface Window Heat Loss Rate [W] !Monthly [Value,Min,Day,Hour,Minute,Max,Day,Hour,Minute]
341,11,FLOOR1:ZONE1_WALL_5_0_0_0_0_0_WIN,Surface Window Heat Loss Rate [W] !RunPeriod [Value,Min,Month,Day,Hour,Minute,Max,Month,Day,Hour,Minute]
342,7,FLOOR1:ZONE1_PARTITION_6_0_0_0_0_0_WIN,Surface Window Transmitted Solar Radiation Rate [W] !Daily [Value,Min,Hour,Minute,Max,Hour,Minute]
343,9,FLOOR1:ZONE1_PARTITION_6_0_0_0_0_0_WIN,Surface Window Transmitted Solar Radiation Rate [W] !Monthly [Value,Min,Day,Hour,Minute,Max,Day,Hour,Minute]
344,11,FLOOR1:ZONE1_PARTITION_6_0_0_0_0_0_WIN,Surface Window Transmitted Solar Radiation Rate [W] !RunPeriod [Value,Min,Month,Day,Hour,Minute,Max,Month,Day,Hour,Minute]
345,7,FLOOR1:ZONE1_PARTITION_6_0_0_0_0_0_WIN,Surface Window Transmitted Beam Solar Radiation Rate [W] !Daily [Value,Min,Hour,Minute,Max,Hour,Minute]
346,9,FLOOR1:ZONE1_PARTITION_6_0_0_0_0_0_WIN,Surface Window Transmitted Beam Solar Radiation Rate [W] !Monthly [Value,Min,Day,Hour,Minute,Max,Day,Hour,Minute]
347,11,FLOOR1:ZONE1_PARTITION_6_0_0_0_0_0_WIN,Surface Window Transmitted Beam Solar Radiation Rate [W] !RunPeriod [Value,Min,Month,Day,Hour,Minute,Max,Month,Day,Hour,Minute]
348,7,FLOOR1:ZONE1_PARTITION_6_0_0_0_0_0_WIN,Surface Window Heat Gain Rate [W] !Daily [Value,Min,Hour,Minute,Max,Hour,Minute]
349,9,FLOOR1:ZONE1_PARTITION_6_0_0_0_0_0_WIN,Surface Window Heat Gain Rate [W] !Monthly [Value,Min,Day,Hour,Minute,Max,Day,Hour,Minute]
350,11,FLOOR1:ZONE1_PARTITION_6_0_0_0_0_0_WIN,Surface Window Heat Gain Rate [W] !RunPeriod [Value,Min,Month,Day,Hour,Minute,Max,Month,Day,Hour,Minute]
351,7,FLOOR1:ZONE1_PARTITION_6_0_0_0_0_0_WIN,Surface Window Heat Loss Rate [W] !Daily [Value,Min,Hour,Minute,Max,Hour,Minute]
352,9,FLOOR1:ZONE1_PARTITION_6_0_0_0_0_0_WIN,Surface Window Heat Loss Rate [W] !Monthly [Value,Min,Day,Hour,Minute,Max,Day,Hour,Minute]
353,11,FLOOR1:ZONE1_PARTITION_6_0_0_0_0_0_WIN,Surface Window Heat Loss Rate [W] !RunPeriod [Value,Min,Month,Day,Hour,Minute,Max,Month,Day,Hour,Minute]
354,7,FLOOR1:ZONE1_PARTITION_6_0_0_0_0_0_WIN,Surface Window Transmitted Beam Solar Radiation Rate [W] !Daily [Value,Min,Hour,Minute,Max,Hour,Minute]
355,9,FLOOR1:ZONE1_PARTITION_6_0_0_0_0_0_WIN,Surface Window Transmitted Beam Solar Radiation Rate [W] !Monthly [Value,Min,Day,Hour,Minute,Max,Day,Hour,Minute]
356,11,FLOOR1:ZONE1_PARTITION_6_0_0_0_0_0_WIN,Surface Window Transmitted Beam Solar Radiation Rate [W] !RunPeriod [Value,Min,Month,Day,Hour,Minute,Max,Month,Day,Hour,Minute]
357,7,FLOOR1:ZONE1_PARTITION_7_0_0_0_0_0_WIN,Surface Window Transmitted Solar Radiation Rate [W] !Daily [Value,Min,Hour,Minute,Max,Hour,Minute]